 Entering Gaussian System, Link 0=/opt/cluster/additional/g03_64/g03
 Initial command:
 /opt/cluster/additional/g03_64/l1.exe /scratch/bereau/g03_26628/Gau-1035.inp -scrdir=/scratch/bereau/g03_26628/
 Entering Link 1 = /opt/cluster/additional/g03_64/l1.exe PID=      1036.
  
 Copyright (c) 1988,1990,1992,1993,1995,1998,2003,2004, Gaussian, Inc.
                  All Rights Reserved.
  
 This is the Gaussian(R) 03 program.  It is based on the
 the Gaussian(R) 98 system (copyright 1998, Gaussian, Inc.),
 the Gaussian(R) 94 system (copyright 1995, Gaussian, Inc.),
 the Gaussian 92(TM) system (copyright 1992, Gaussian, Inc.),
 the Gaussian 90(TM) system (copyright 1990, Gaussian, Inc.),
 the Gaussian 88(TM) system (copyright 1988, Gaussian, Inc.),
 the Gaussian 86(TM) system (copyright 1986, Carnegie Mellon
 University), and the Gaussian 82(TM) system (copyright 1983,
 Carnegie Mellon University). Gaussian is a federally registered
 trademark of Gaussian, Inc.
  
 This software contains proprietary and confidential information,
 including trade secrets, belonging to Gaussian, Inc.
  
 This software is provided under written license and may be
 used, copied, transmitted, or stored only in accord with that
 written license.
  
 The following legend is applicable only to US Government
 contracts under FAR:
  
                    RESTRICTED RIGHTS LEGEND
  
 Use, reproduction and disclosure by the US Government is
 subject to restrictions as set forth in subparagraphs (a)
 and (c) of the Commercial Computer Software - Restricted
 Rights clause in FAR 52.227-19.
  
 Gaussian, Inc.
 340 Quinnipiac St., Bldg. 40, Wallingford CT 06492
  
  
 ---------------------------------------------------------------
 Warning -- This program may not be used in any manner that
 competes with the business of Gaussian, Inc. or will provide
 assistance to any competitor of Gaussian, Inc.  The licensee
 of this program is prohibited from giving any competitor of
 Gaussian, Inc. access to this program.  By using this program,
 the user acknowledges that Gaussian, Inc. is engaged in the
 business of creating and licensing software in the field of
 computational chemistry and represents and warrants to the
 licensee that it is not a competitor of Gaussian, Inc. and that
 it will not use this program in any manner prohibited above.
 ---------------------------------------------------------------
  

 Cite this work as:
 Gaussian 03, Revision D.02,
 M. J. Frisch, G. W. Trucks, H. B. Schlegel, G. E. Scuseria, 
 M. A. Robb, J. R. Cheeseman, J. A. Montgomery, Jr., T. Vreven, 
 K. N. Kudin, J. C. Burant, J. M. Millam, S. S. Iyengar, J. Tomasi, 
 V. Barone, B. Mennucci, M. Cossi, G. Scalmani, N. Rega, 
 G. A. Petersson, H. Nakatsuji, M. Hada, M. Ehara, K. Toyota, 
 R. Fukuda, J. Hasegawa, M. Ishida, T. Nakajima, Y. Honda, O. Kitao, 
 H. Nakai, M. Klene, X. Li, J. E. Knox, H. P. Hratchian, J. B. Cross, 
 V. Bakken, C. Adamo, J. Jaramillo, R. Gomperts, R. E. Stratmann, 
 O. Yazyev, A. J. Austin, R. Cammi, C. Pomelli, J. W. Ochterski, 
 P. Y. Ayala, K. Morokuma, G. A. Voth, P. Salvador, J. J. Dannenberg, 
 V. G. Zakrzewski, S. Dapprich, A. D. Daniels, M. C. Strain, 
 O. Farkas, D. K. Malick, A. D. Rabuck, K. Raghavachari, 
 J. B. Foresman, J. V. Ortiz, Q. Cui, A. G. Baboul, S. Clifford, 
 J. Cioslowski, B. B. Stefanov, G. Liu, A. Liashenko, P. Piskorz, 
 I. Komaromi, R. L. Martin, D. J. Fox, T. Keith, M. A. Al-Laham, 
 C. Y. Peng, A. Nanayakkara, M. Challacombe, P. M. W. Gill, 
 B. Johnson, W. Chen, M. W. Wong, C. Gonzalez, and J. A. Pople, 
 Gaussian, Inc., Wallingford CT, 2004.
 
 ******************************************
 Gaussian 03:  AM64L-G03RevD.02  1-Mar-2006
                22-Apr-2013 
 ******************************************
 %NPROC=1
 Will use up to    1 processors via shared memory.
 %Chk=/storage/bereau/hamm/ethane/ethane/ethane.chk
 %Mem=1000MB
 ---------------------
 #P MP2/6-31G** nosymm
 ---------------------
 1/38=1/1;
 2/15=1,17=6,18=5,40=1/2;
 3/5=1,6=6,7=101,11=9,16=1,25=1,30=1/1,2,3;
 4//1;
 5/5=2,38=5/2;
 8/10=2/1;
 9/16=-3/6;
 6/7=2,8=2,9=2,10=2/1;
 99/5=1,9=1/99;
 Leave Link    1 at Mon Apr 22 09:59:24 2013, MaxMem=  131072000 cpu:       0.1
 (Enter /opt/cluster/additional/g03_64/l101.exe)
 -------------------
 ethane single point
 -------------------
 Symbolic Z-matrix:
 Charge =  0 Multiplicity = 1
 C                     0.9323    0.0359   -0.0682 
 C                     2.4441    0.0346   -0.0581 
 H                     0.5474    1.0361    0.1519 
 H                     0.5424   -0.6565    0.6838 
 H                     0.5543   -0.2708   -1.0479 
 H                     2.8225    0.3415    0.9217 
 H                     2.8344    0.727    -0.8102 
 H                     2.8294   -0.9656   -0.2781 
 
                    Isotopes and Nuclear Properties:
 (Nuclear quadrupole moments (NQMom) in fm**2, nuclear magnetic moments (NMagM)
  in nuclear magnetons)

  Atom         1           2           3           4           5           6           7           8
 IAtWgt=          12          12           1           1           1           1           1           1
 AtmWgt=  12.0000000  12.0000000   1.0078250   1.0078250   1.0078250   1.0078250   1.0078250   1.0078250
 NucSpn=           0           0           1           1           1           1           1           1
 AtZEff=   0.0000000   0.0000000   0.0000000   0.0000000   0.0000000   0.0000000   0.0000000   0.0000000
 NQMom=    0.0000000   0.0000000   0.0000000   0.0000000   0.0000000   0.0000000   0.0000000   0.0000000
 NMagM=    0.0000000   0.0000000   2.7928460   2.7928460   2.7928460   2.7928460   2.7928460   2.7928460
 Leave Link  101 at Mon Apr 22 09:59:25 2013, MaxMem=  131072000 cpu:       0.1
 (Enter /opt/cluster/additional/g03_64/l202.exe)
                          Input orientation:                          
 ---------------------------------------------------------------------
 Center     Atomic     Atomic              Coordinates (Angstroms)
 Number     Number      Type              X           Y           Z
 ---------------------------------------------------------------------
    1          6             0        0.932300    0.035900   -0.068200
    2          6             0        2.444100    0.034600   -0.058100
    3          1             0        0.547400    1.036100    0.151900
    4          1             0        0.542400   -0.656500    0.683800
    5          1             0        0.554300   -0.270800   -1.047900
    6          1             0        2.822500    0.341500    0.921700
    7          1             0        2.834400    0.727000   -0.810200
    8          1             0        2.829400   -0.965600   -0.278100
 ---------------------------------------------------------------------
                    Distance matrix (angstroms):
                    1          2          3          4          5
     1  C    0.000000
     2  C    1.511834   0.000000
     3  H    1.094071   2.155127   0.000000
     4  H    1.094049   2.155110   1.774215   0.000000
     5  H    1.093966   2.155068   1.774135   1.774173   0.000000
     6  H    2.155493   1.094250   2.500228   2.500291   3.065773
     7  H    2.155497   1.094261   2.500310   3.065840   2.500192
     8  H    2.155469   1.094192   3.065816   2.500233   2.500284
                    6          7          8
     6  H    0.000000
     7  H    1.774325   0.000000
     8  H    1.774282   1.774275   0.000000
 Symmetry turned off by external request.
 Stoichiometry    C2H6
 Framework group  C1[X(C2H6)]
 Deg. of freedom    18
 Full point group                 C1
 Rotational constants (GHZ):     79.6489728     20.4190786     20.4189278
 Leave Link  202 at Mon Apr 22 09:59:27 2013, MaxMem=  131072000 cpu:       0.1
 (Enter /opt/cluster/additional/g03_64/l301.exe)
 Standard basis: 6-31G(d,p) (6D, 7F)
 Integral buffers will be    131072 words long.
 Raffenetti 1 integral format.
 Two-electron integral symmetry is turned off.
    60 basis functions,    98 primitive gaussians,    60 cartesian basis functions
     9 alpha electrons        9 beta electrons
       nuclear repulsion energy        42.4283872978 Hartrees.
 IExCor=   0 DFT=F Ex=HF Corr=None ExCW=0 ScaHFX=  1.000000
 ScaDFX=  1.000000  1.000000  1.000000  1.000000
 IRadAn=      0 IRanWt=     -1 IRanGd=            0 ICorTp=0
 NAtoms=    8 NActive=    8 NUniq=    8 SFac= 7.50D-01 NAtFMM=   80 NAOKFM=F Big=F
 Leave Link  301 at Mon Apr 22 09:59:29 2013, MaxMem=  131072000 cpu:       0.0
 (Enter /opt/cluster/additional/g03_64/l302.exe)
 NPDir=0 NMtPBC=     1 NCelOv=     1 NCel=       1 NClECP=     1 NCelD=      1
         NCelK=      1 NCelE2=     1 NClLst=     1 CellRange=     0.0.
 One-electron integrals computed using PRISM.
 NBasis=    60 RedAO= T  NBF=    60
 NBsUse=    60 1.00D-06 NBFU=    60
 Leave Link  302 at Mon Apr 22 09:59:31 2013, MaxMem=  131072000 cpu:       0.1
 (Enter /opt/cluster/additional/g03_64/l303.exe)
 DipDrv:  MaxL=1.
 Leave Link  303 at Mon Apr 22 09:59:32 2013, MaxMem=  131072000 cpu:       0.0
 (Enter /opt/cluster/additional/g03_64/l401.exe)
 Harris functional with IExCor=  205 diagonalized for initial guess.
 ExpMin= 1.61D-01 ExpMax= 3.05D+03 ExpMxC= 4.57D+02 IAcc=1 IRadAn=         1 AccDes= 1.00D-06
 HarFok:  IExCor= 205 AccDes= 1.00D-06 IRadAn=         1 IDoV=1
 ScaDFX=  1.000000  1.000000  1.000000  1.000000
 Harris En= -79.5380794069687    
 Leave Link  401 at Mon Apr 22 09:59:35 2013, MaxMem=  131072000 cpu:       0.2
 (Enter /opt/cluster/additional/g03_64/l502.exe)
 Closed shell SCF:
 Requested convergence on RMS density matrix=1.00D-08 within 128 cycles.
 Requested convergence on MAX density matrix=1.00D-06.
 Requested convergence on             energy=1.00D-06.
 No special actions if energy rises.
 Using DIIS extrapolation, IDIIS=  1040.
 Two-electron integral symmetry not used.
 Keep R1 integrals in memory in canonical form, NReq=     2639193.
 IEnd=     30354 IEndB=     30354 NGot= 131072000 MDV= 129386568
 LenX= 129386568
 Symmetry not used in FoFDir.
 MinBra= 0 MaxBra= 2 Meth= 1.
 IRaf=       0 NMat=   1 IRICut=       1 DoRegI=T DoRafI=F ISym2E= 0 JSym2E=0.

 Cycle   1  Pass 1  IDiag  1:
 E= -79.0226986965264    
 DIIS: error= 6.34D-02 at cycle   1 NSaved=   1.
 NSaved= 1 IEnMin= 1 EnMin= -79.0226986965264     IErMin= 1 ErrMin= 6.34D-02
 ErrMax= 6.34D-02 EMaxC= 1.00D-01 BMatC= 2.38D-01 BMatP= 2.38D-01
 IDIUse=3 WtCom= 3.66D-01 WtEn= 6.34D-01
 Coeff-Com:  0.100D+01
 Coeff-En:   0.100D+01
 Coeff:      0.100D+01
 Gap=     0.652 Goal=   None    Shift=    0.000
 GapD=    0.652 DampG=2.000 DampE=0.500 DampFc=1.0000 IDamp=-1.
 RMSDP=8.45D-03 MaxDP=1.30D-01              OVMax= 1.50D-01

 Cycle   2  Pass 1  IDiag  1:
 E= -79.1991382496483     Delta-E=       -0.176439553122 Rises=F Damp=F
 DIIS: error= 2.97D-02 at cycle   2 NSaved=   2.
 NSaved= 2 IEnMin= 2 EnMin= -79.1991382496483     IErMin= 2 ErrMin= 2.97D-02
 ErrMax= 2.97D-02 EMaxC= 1.00D-01 BMatC= 4.09D-02 BMatP= 2.38D-01
 IDIUse=3 WtCom= 7.03D-01 WtEn= 2.97D-01
 Coeff-Com:  0.260D+00 0.740D+00
 Coeff-En:   0.000D+00 0.100D+01
 Coeff:      0.182D+00 0.818D+00
 Gap=     0.777 Goal=   None    Shift=    0.000
 RMSDP=2.89D-03 MaxDP=3.72D-02 DE=-1.76D-01 OVMax= 6.00D-02

 Cycle   3  Pass 1  IDiag  1:
 E= -79.2360971221416     Delta-E=       -0.036958872493 Rises=F Damp=F
 DIIS: error= 5.60D-03 at cycle   3 NSaved=   3.
 NSaved= 3 IEnMin= 3 EnMin= -79.2360971221416     IErMin= 3 ErrMin= 5.60D-03
 ErrMax= 5.60D-03 EMaxC= 1.00D-01 BMatC= 1.38D-03 BMatP= 4.09D-02
 IDIUse=3 WtCom= 9.44D-01 WtEn= 5.60D-02
 Coeff-Com: -0.286D-01 0.105D+00 0.923D+00
 Coeff-En:   0.000D+00 0.000D+00 0.100D+01
 Coeff:     -0.270D-01 0.995D-01 0.928D+00
 Gap=     0.723 Goal=   None    Shift=    0.000
 RMSDP=5.14D-04 MaxDP=7.74D-03 DE=-3.70D-02 OVMax= 1.07D-02

 Cycle   4  Pass 1  IDiag  1:
 E= -79.2376028372338     Delta-E=       -0.001505715092 Rises=F Damp=F
 DIIS: error= 9.10D-04 at cycle   4 NSaved=   4.
 NSaved= 4 IEnMin= 4 EnMin= -79.2376028372338     IErMin= 4 ErrMin= 9.10D-04
 ErrMax= 9.10D-04 EMaxC= 1.00D-01 BMatC= 1.23D-05 BMatP= 1.38D-03
 IDIUse=3 WtCom= 9.91D-01 WtEn= 9.10D-03
 Coeff-Com:  0.337D-02-0.320D-01-0.162D+00 0.119D+01
 Coeff-En:   0.000D+00 0.000D+00 0.000D+00 0.100D+01
 Coeff:      0.334D-02-0.317D-01-0.160D+00 0.119D+01
 Gap=     0.724 Goal=   None    Shift=    0.000
 RMSDP=9.61D-05 MaxDP=9.04D-04 DE=-1.51D-03 OVMax= 2.43D-03

 Cycle   5  Pass 1  IDiag  1:
 E= -79.2376263053355     Delta-E=       -0.000023468102 Rises=F Damp=F
 DIIS: error= 1.31D-04 at cycle   5 NSaved=   5.
 NSaved= 5 IEnMin= 5 EnMin= -79.2376263053355     IErMin= 5 ErrMin= 1.31D-04
 ErrMax= 1.31D-04 EMaxC= 1.00D-01 BMatC= 3.84D-07 BMatP= 1.23D-05
 IDIUse=3 WtCom= 9.99D-01 WtEn= 1.31D-03
 Coeff-Com:  0.875D-03-0.241D-02-0.245D-01-0.120D+00 0.115D+01
 Coeff-En:   0.000D+00 0.000D+00 0.000D+00 0.000D+00 0.100D+01
 Coeff:      0.874D-03-0.240D-02-0.245D-01-0.120D+00 0.115D+01
 Gap=     0.724 Goal=   None    Shift=    0.000
 RMSDP=2.53D-05 MaxDP=2.03D-04 DE=-2.35D-05 OVMax= 5.13D-04

 Cycle   6  Pass 1  IDiag  1:
 E= -79.2376271993931     Delta-E=       -0.000000894058 Rises=F Damp=F
 DIIS: error= 1.22D-05 at cycle   6 NSaved=   6.
 NSaved= 6 IEnMin= 6 EnMin= -79.2376271993931     IErMin= 6 ErrMin= 1.22D-05
 ErrMax= 1.22D-05 EMaxC= 1.00D-01 BMatC= 2.94D-09 BMatP= 3.84D-07
 IDIUse=1 WtCom= 1.00D+00 WtEn= 0.00D+00
 Coeff-Com: -0.181D-03 0.719D-03 0.641D-02 0.113D-01-0.238D+00 0.122D+01
 Coeff:     -0.181D-03 0.719D-03 0.641D-02 0.113D-01-0.238D+00 0.122D+01
 Gap=     0.724 Goal=   None    Shift=    0.000
 RMSDP=2.90D-06 MaxDP=2.52D-05 DE=-8.94D-07 OVMax= 4.62D-05

 Cycle   7  Pass 1  IDiag  1:
 E= -79.2376272056669     Delta-E=       -0.000000006274 Rises=F Damp=F
 DIIS: error= 5.14D-07 at cycle   7 NSaved=   7.
 NSaved= 7 IEnMin= 7 EnMin= -79.2376272056669     IErMin= 7 ErrMin= 5.14D-07
 ErrMax= 5.14D-07 EMaxC= 1.00D-01 BMatC= 1.05D-11 BMatP= 2.94D-09
 IDIUse=1 WtCom= 1.00D+00 WtEn= 0.00D+00
 Coeff-Com:  0.227D-04-0.976D-04-0.845D-03-0.104D-02 0.303D-01-0.181D+00
 Coeff-Com:  0.115D+01
 Coeff:      0.227D-04-0.976D-04-0.845D-03-0.104D-02 0.303D-01-0.181D+00
 Coeff:      0.115D+01
 Gap=     0.724 Goal=   None    Shift=    0.000
 RMSDP=1.05D-07 MaxDP=1.04D-06 DE=-6.27D-09 OVMax= 1.31D-06

 Cycle   8  Pass 1  IDiag  1:
 E= -79.2376272056837     Delta-E=       -0.000000000017 Rises=F Damp=F
 DIIS: error= 1.09D-07 at cycle   8 NSaved=   8.
 NSaved= 8 IEnMin= 8 EnMin= -79.2376272056837     IErMin= 8 ErrMin= 1.09D-07
 ErrMax= 1.09D-07 EMaxC= 1.00D-01 BMatC= 5.27D-13 BMatP= 1.05D-11
 IDIUse=1 WtCom= 1.00D+00 WtEn= 0.00D+00
 Coeff-Com:  0.600D-05-0.258D-04-0.219D-03-0.322D-03 0.802D-02-0.453D-01
 Coeff-Com:  0.173D+00 0.865D+00
 Coeff:      0.600D-05-0.258D-04-0.219D-03-0.322D-03 0.802D-02-0.453D-01
 Coeff:      0.173D+00 0.865D+00
 Gap=     0.724 Goal=   None    Shift=    0.000
 RMSDP=1.20D-08 MaxDP=2.31D-07 DE=-1.68D-11 OVMax= 2.20D-07

 Cycle   9  Pass 1  IDiag  1:
 E= -79.2376272056847     Delta-E=       -0.000000000001 Rises=F Damp=F
 DIIS: error= 2.67D-08 at cycle   9 NSaved=   9.
 NSaved= 9 IEnMin= 9 EnMin= -79.2376272056847     IErMin= 9 ErrMin= 2.67D-08
 ErrMax= 2.67D-08 EMaxC= 1.00D-01 BMatC= 2.57D-14 BMatP= 5.27D-13
 IDIUse=1 WtCom= 1.00D+00 WtEn= 0.00D+00
 Coeff-Com: -0.126D-05 0.513D-05 0.470D-04 0.556D-04-0.167D-02 0.995D-02
 Coeff-Com: -0.706D-01 0.453D-01 0.102D+01
 Coeff:     -0.126D-05 0.513D-05 0.470D-04 0.556D-04-0.167D-02 0.995D-02
 Coeff:     -0.706D-01 0.453D-01 0.102D+01
 Gap=     0.724 Goal=   None    Shift=    0.000
 RMSDP=3.22D-09 MaxDP=6.18D-08 DE=-9.95D-13 OVMax= 5.65D-08

 SCF Done:  E(RHF) =  -79.2376272057     A.U. after    9 cycles
             Convg  =    0.3222D-08             -V/T =  2.0010
             S**2   =   0.0000
 KE= 7.916049218415D+01 PE=-2.685855124131D+02 EE= 6.775900572542D+01
 Leave Link  502 at Mon Apr 22 09:59:38 2013, MaxMem=  131072000 cpu:       0.5
 (Enter /opt/cluster/additional/g03_64/l801.exe)
 ExpMin= 1.61D-01 ExpMax= 3.05D+03 ExpMxC= 4.57D+02 IAcc=1 IRadAn=         1 AccDes= 1.00D-06
 HarFok:  IExCor= 205 AccDes= 1.00D-06 IRadAn=         1 IDoV=1
 ScaDFX=  1.000000  1.000000  1.000000  1.000000
 Largest valence mixing into a core orbital is  1.82D-04
 Largest core mixing into a valence orbital is  2.83D-05
 Range of M.O.s used for correlation:     3    60
 NBasis=    60 NAE=     9 NBE=     9 NFC=     2 NFV=     0
 NROrb=     58 NOA=     7 NOB=     7 NVA=    51 NVB=    51
 Leave Link  801 at Mon Apr 22 09:59:40 2013, MaxMem=  131072000 cpu:       0.1
 (Enter /opt/cluster/additional/g03_64/l906.exe)
 FulOut=F Deriv=F AODrv=F NAtomX=     8
   MMem=        5091  MDisk=           7 MDiskD=           7
  W3Min=       21420 MinDsk=       98837 NBas6D=          60
 NBas2D=        1902    NTT=        1830    LW2=     2000000
    MDV=   131067746 MDiskM=       29876 NBas2p=        1902
 Fully in-core method, ICMem=     9699024.
 IMap=   1   2   3   4   5   6   7
 JobTyp=1 Pass  1 fully in-core, NPsUse=  1.
 Compute canonical integrals, IntTyp=   4.
 Symmetry not used in FoFDir.
 MinBra= 0 MaxBra= 2 Meth= 1.
 IRaf=       0 NMat=   1 IRICut=       1 DoRegI=T DoRafI=F ISym2E= 0 JSym2E=0.
 Spin components of T(2) and E(2):
     alpha-alpha T2 =       0.1019387025D-01 E2=     -0.3078510814D-01
     alpha-beta  T2 =       0.7619923235D-01 E2=     -0.2438584110D+00
     beta-beta   T2 =       0.1019387025D-01 E2=     -0.3078510814D-01
 The integrals were generated   1 times.
 ANorm=    0.1047180487D+01
 E2 =    -0.3054286273D+00 EUMP2 =    -0.79543055832999D+02
 Leave Link  906 at Mon Apr 22 09:59:42 2013, MaxMem=  131072000 cpu:       0.5
 (Enter /opt/cluster/additional/g03_64/l601.exe)
 Copying SCF densities to generalized density rwf, ISCF=0 IROHF=0.

 **********************************************************************

            Population analysis using the SCF density.

 **********************************************************************

 Alpha  occ. eigenvalues --  -11.21256 -11.21193  -1.02118  -0.83646  -0.59816
 Alpha  occ. eigenvalues --   -0.59815  -0.50813  -0.48347  -0.48346
 Alpha virt. eigenvalues --    0.24045   0.30382   0.31502   0.31503   0.33571
 Alpha virt. eigenvalues --    0.33572   0.41544   0.69768   0.74410   0.74411
 Alpha virt. eigenvalues --    0.82805   0.82806   0.94598   1.12251   1.12253
 Alpha virt. eigenvalues --    1.15960   1.16683   1.16685   1.21897   1.27790
 Alpha virt. eigenvalues --    1.58869   1.58870   1.68946   1.97924   1.97925
 Alpha virt. eigenvalues --    2.19583   2.35657   2.35742   2.38290   2.38294
 Alpha virt. eigenvalues --    2.38859   2.38864   2.58953   2.58955   2.65817
 Alpha virt. eigenvalues --    2.81475   2.81477   3.00317   3.08954   3.13821
 Alpha virt. eigenvalues --    3.13824   3.25958   3.25959   3.51722   3.61437
 Alpha virt. eigenvalues --    3.75688   3.75694   3.90724   3.90729   4.74956
 Alpha virt. eigenvalues --    5.00822
          Condensed to atoms (all electrons):
              1          2          3          4          5          6
     1  C    4.910759   0.328305   0.404351   0.404352   0.404360  -0.040682
     2  C    0.328305   4.910974  -0.040707  -0.040708  -0.040707   0.404317
     3  H    0.404351  -0.040707   0.589702  -0.030361  -0.030366  -0.003610
     4  H    0.404352  -0.040708  -0.030361   0.589689  -0.030360  -0.003607
     5  H    0.404360  -0.040707  -0.030366  -0.030360   0.589663   0.004552
     6  H   -0.040682   0.404317  -0.003610  -0.003607   0.004552   0.589777
     7  H   -0.040683   0.404315  -0.003607   0.004552  -0.003609  -0.030374
     8  H   -0.040682   0.404321   0.004552  -0.003609  -0.003607  -0.030376
              7          8
     1  C   -0.040683  -0.040682
     2  C    0.404315   0.404321
     3  H   -0.003607   0.004552
     4  H    0.004552  -0.003609
     5  H   -0.003609  -0.003607
     6  H   -0.030374  -0.030376
     7  H    0.589787  -0.030378
     8  H   -0.030378   0.589762
 Mulliken atomic charges:
              1
     1  C   -0.330079
     2  C   -0.330110
     3  H    0.110046
     4  H    0.110052
     5  H    0.110074
     6  H    0.110003
     7  H    0.109998
     8  H    0.110016
 Sum of Mulliken charges=   0.00000
 Atomic charges with hydrogens summed into heavy atoms:
              1
     1  C    0.000094
     2  C   -0.000094
     3  H    0.000000
     4  H    0.000000
     5  H    0.000000
     6  H    0.000000
     7  H    0.000000
     8  H    0.000000
 Sum of Mulliken charges=   0.00000
 Electronic spatial extent (au):  <R**2>=   292.2165
 Charge=     0.0000 electrons
 Dipole moment (field-independent basis, Debye):
    X=    -0.0003    Y=    -0.0001    Z=    -0.0001  Tot=     0.0003
 Quadrupole moment (field-independent basis, Debye-Ang):
   XX=   -15.7157   YY=   -14.8967   ZZ=   -14.8966
   XY=     0.0005   XZ=    -0.0055   YZ=     0.0000
 Traceless Quadrupole moment (field-independent basis, Debye-Ang):
   XX=    -0.5460   YY=     0.2729   ZZ=     0.2731
   XY=     0.0005   XZ=    -0.0055   YZ=     0.0000
 Octapole moment (field-independent basis, Debye-Ang**2):
  XXX=   -79.5950  YYY=    -1.5760  ZZZ=     2.8214  XYY=   -25.1505
  XXY=    -0.5524  XXZ=     0.9738  XZZ=   -25.1498  YZZ=    -0.5254
  YYZ=     0.9408  XYZ=    -0.0002
 Hexadecapole moment (field-independent basis, Debye-Ang**3):
 XXXX=  -361.1114 YYYY=   -29.3573 ZZZZ=   -29.5869 XXXY=    -2.7728
 XXXZ=     4.7485 YYYX=    -3.6616 YYYZ=     0.0952 ZZZX=     5.3644
 ZZZY=     0.1198 XXYY=   -61.7348 XXZZ=   -61.7939 YYZZ=    -9.8405
 XXYZ=     0.0196 YYXZ=     0.7340 ZZXY=     0.1462
 N-N= 4.242838729785D+01 E-N=-2.685855127793D+02  KE= 7.916049218415D+01
 Leave Link  601 at Mon Apr 22 09:59:44 2013, MaxMem=  131072000 cpu:       0.0
 (Enter /opt/cluster/additional/g03_64/l9999.exe)
 1\1\GINC-NODE04\SP\RMP2-FC\6-31G(d,p)\C2H6\BEREAU\22-Apr-2013\0\\#P MP
 2/6-31G** nosymm\\ethane single point\\0,1\C,0,0.9323,0.0359,-0.0682\C
 ,0,2.4441,0.0346,-0.0581\H,0,0.5474,1.0361,0.1519\H,0,0.5424,-0.6565,0
 .6838\H,0,0.5543,-0.2708,-1.0479\H,0,2.8225,0.3415,0.9217\H,0,2.8344,0
 .727,-0.8102\H,0,2.8294,-0.9656,-0.2781\\Version=AM64L-G03RevD.02\HF=-
 79.2376272\MP2=-79.5430558\RMSD=3.222e-09\Thermal=0.\PG=C01 [X(C2H6)]\
 \@


 THERE IS SOMETHING FASCINATING ABOUT SCIENCE.
 ONE GETS SUCH WHOLESALE CONJECTURE OUT OF SUCH TRIFLING INVESTMENTS.

                                                       -- MARK TWAIN
 Job cpu time:  0 days  0 hours  0 minutes 14.7 seconds.
 File lengths (MBytes):  RWF=     13 Int=      0 D2E=      0 Chk=     10 Scr=      1
 Normal termination of Gaussian 03 at Mon Apr 22 09:59:47 2013.
