 Entering Gaussian System, Link 0=/opt/cluster/additional/g03_64/g03
 Initial command:
 /opt/cluster/additional/g03_64/l1.exe /scratch/bereau/g03_26837/Gau-26662.inp -scrdir=/scratch/bereau/g03_26837/
 Entering Link 1 = /opt/cluster/additional/g03_64/l1.exe PID=     26663.
  
 Copyright (c) 1988,1990,1992,1993,1995,1998,2003,2004, Gaussian, Inc.
                  All Rights Reserved.
  
 This is the Gaussian(R) 03 program.  It is based on the
 the Gaussian(R) 98 system (copyright 1998, Gaussian, Inc.),
 the Gaussian(R) 94 system (copyright 1995, Gaussian, Inc.),
 the Gaussian 92(TM) system (copyright 1992, Gaussian, Inc.),
 the Gaussian 90(TM) system (copyright 1990, Gaussian, Inc.),
 the Gaussian 88(TM) system (copyright 1988, Gaussian, Inc.),
 the Gaussian 86(TM) system (copyright 1986, Carnegie Mellon
 University), and the Gaussian 82(TM) system (copyright 1983,
 Carnegie Mellon University). Gaussian is a federally registered
 trademark of Gaussian, Inc.
  
 This software contains proprietary and confidential information,
 including trade secrets, belonging to Gaussian, Inc.
  
 This software is provided under written license and may be
 used, copied, transmitted, or stored only in accord with that
 written license.
  
 The following legend is applicable only to US Government
 contracts under FAR:
  
                    RESTRICTED RIGHTS LEGEND
  
 Use, reproduction and disclosure by the US Government is
 subject to restrictions as set forth in subparagraphs (a)
 and (c) of the Commercial Computer Software - Restricted
 Rights clause in FAR 52.227-19.
  
 Gaussian, Inc.
 340 Quinnipiac St., Bldg. 40, Wallingford CT 06492
  
  
 ---------------------------------------------------------------
 Warning -- This program may not be used in any manner that
 competes with the business of Gaussian, Inc. or will provide
 assistance to any competitor of Gaussian, Inc.  The licensee
 of this program is prohibited from giving any competitor of
 Gaussian, Inc. access to this program.  By using this program,
 the user acknowledges that Gaussian, Inc. is engaged in the
 business of creating and licensing software in the field of
 computational chemistry and represents and warrants to the
 licensee that it is not a competitor of Gaussian, Inc. and that
 it will not use this program in any manner prohibited above.
 ---------------------------------------------------------------
  

 Cite this work as:
 Gaussian 03, Revision D.02,
 M. J. Frisch, G. W. Trucks, H. B. Schlegel, G. E. Scuseria, 
 M. A. Robb, J. R. Cheeseman, J. A. Montgomery, Jr., T. Vreven, 
 K. N. Kudin, J. C. Burant, J. M. Millam, S. S. Iyengar, J. Tomasi, 
 V. Barone, B. Mennucci, M. Cossi, G. Scalmani, N. Rega, 
 G. A. Petersson, H. Nakatsuji, M. Hada, M. Ehara, K. Toyota, 
 R. Fukuda, J. Hasegawa, M. Ishida, T. Nakajima, Y. Honda, O. Kitao, 
 H. Nakai, M. Klene, X. Li, J. E. Knox, H. P. Hratchian, J. B. Cross, 
 V. Bakken, C. Adamo, J. Jaramillo, R. Gomperts, R. E. Stratmann, 
 O. Yazyev, A. J. Austin, R. Cammi, C. Pomelli, J. W. Ochterski, 
 P. Y. Ayala, K. Morokuma, G. A. Voth, P. Salvador, J. J. Dannenberg, 
 V. G. Zakrzewski, S. Dapprich, A. D. Daniels, M. C. Strain, 
 O. Farkas, D. K. Malick, A. D. Rabuck, K. Raghavachari, 
 J. B. Foresman, J. V. Ortiz, Q. Cui, A. G. Baboul, S. Clifford, 
 J. Cioslowski, B. B. Stefanov, G. Liu, A. Liashenko, P. Piskorz, 
 I. Komaromi, R. L. Martin, D. J. Fox, T. Keith, M. A. Al-Laham, 
 C. Y. Peng, A. Nanayakkara, M. Challacombe, P. M. W. Gill, 
 B. Johnson, W. Chen, M. W. Wong, C. Gonzalez, and J. A. Pople, 
 Gaussian, Inc., Wallingford CT, 2004.
 
 ******************************************
 Gaussian 03:  AM64L-G03RevD.02  1-Mar-2006
                22-Apr-2013 
 ******************************************
 %NPROC=1
 Will use up to    1 processors via shared memory.
 %Chk=/storage/bereau/hamm/fluoroethane/fluoroethane/fluoroethane.chk
 %Mem=1000MB
 ---------------------
 #P MP2/6-31G** nosymm
 ---------------------
 1/38=1/1;
 2/15=1,17=6,18=5,40=1/2;
 3/5=1,6=6,7=101,11=9,16=1,25=1,30=1/1,2,3;
 4//1;
 5/5=2,38=5/2;
 8/10=2/1;
 9/16=-3/6;
 6/7=2,8=2,9=2,10=2/1;
 99/5=1,9=1/99;
 Leave Link    1 at Mon Apr 22 09:59:56 2013, MaxMem=  131072000 cpu:       0.1
 (Enter /opt/cluster/additional/g03_64/l101.exe)
 -------------------------
 fluoroethane single point
 -------------------------
 Symbolic Z-matrix:
 Charge =  0 Multiplicity = 1
 C                     1.029    -0.0891    0.0771 
 F                     0.5852    0.6969   -0.9388 
 C                     2.5393   -0.0776    0.0767 
 H                     0.6301    0.3081    1.0142 
 H                     0.6406   -1.099    -0.0791 
 H                     2.9125    0.9434    0.2018 
 H                     2.9229   -0.4479   -0.8789 
 H                     2.9361   -0.7007    0.8827 
 
                    Isotopes and Nuclear Properties:
 (Nuclear quadrupole moments (NQMom) in fm**2, nuclear magnetic moments (NMagM)
  in nuclear magnetons)

  Atom         1           2           3           4           5           6           7           8
 IAtWgt=          12          19          12           1           1           1           1           1
 AtmWgt=  12.0000000  18.9984033  12.0000000   1.0078250   1.0078250   1.0078250   1.0078250   1.0078250
 NucSpn=           0           1           0           1           1           1           1           1
 AtZEff=   0.0000000   0.0000000   0.0000000   0.0000000   0.0000000   0.0000000   0.0000000   0.0000000
 NQMom=    0.0000000  -9.4200000   0.0000000   0.0000000   0.0000000   0.0000000   0.0000000   0.0000000
 NMagM=    0.0000000   2.6288670   0.0000000   2.7928460   2.7928460   2.7928460   2.7928460   2.7928460
 Leave Link  101 at Mon Apr 22 09:59:58 2013, MaxMem=  131072000 cpu:       0.1
 (Enter /opt/cluster/additional/g03_64/l202.exe)
                          Input orientation:                          
 ---------------------------------------------------------------------
 Center     Atomic     Atomic              Coordinates (Angstroms)
 Number     Number      Type              X           Y           Z
 ---------------------------------------------------------------------
    1          6             0        1.029000   -0.089100    0.077100
    2          9             0        0.585200    0.696900   -0.938800
    3          6             0        2.539300   -0.077600    0.076700
    4          1             0        0.630100    0.308100    1.014200
    5          1             0        0.640600   -1.099000   -0.079100
    6          1             0        2.912500    0.943400    0.201800
    7          1             0        2.922900   -0.447900   -0.878900
    8          1             0        2.936100   -0.700700    0.882700
 ---------------------------------------------------------------------
                    Distance matrix (angstroms):
                    1          2          3          4          5
     1  C    0.000000
     2  F    1.358973   0.000000
     3  C    1.510344   2.334437   0.000000
     4  H    1.093181   1.991831   2.161646   0.000000
     5  H    1.093230   1.991836   2.161618   1.781950   0.000000
     6  H    2.151553   2.603470   1.094244   2.504586   3.067871
     7  H    2.151634   2.603651   1.094277   3.067946   2.504497
     8  H    2.158721   3.286013   1.093316   2.520438   2.520520
                    6          7          8
     6  H    0.000000
     7  H    1.761742   0.000000
     8  H    1.779676   1.779696   0.000000
 Symmetry turned off by external request.
 Stoichiometry    C2H5F
 Framework group  C1[X(C2H5F)]
 Deg. of freedom    18
 Full point group                 C1
 Rotational constants (GHZ):     36.3260167      9.6910178      8.4605882
 Leave Link  202 at Mon Apr 22 09:59:59 2013, MaxMem=  131072000 cpu:       0.1
 (Enter /opt/cluster/additional/g03_64/l301.exe)
 Standard basis: 6-31G(d,p) (6D, 7F)
 Integral buffers will be    131072 words long.
 Raffenetti 1 integral format.
 Two-electron integral symmetry is turned off.
    70 basis functions,   119 primitive gaussians,    70 cartesian basis functions
    13 alpha electrons       13 beta electrons
       nuclear repulsion energy        80.0266902832 Hartrees.
 IExCor=   0 DFT=F Ex=HF Corr=None ExCW=0 ScaHFX=  1.000000
 ScaDFX=  1.000000  1.000000  1.000000  1.000000
 IRadAn=      0 IRanWt=     -1 IRanGd=            0 ICorTp=0
 NAtoms=    8 NActive=    8 NUniq=    8 SFac= 7.50D-01 NAtFMM=   80 NAOKFM=F Big=F
 Leave Link  301 at Mon Apr 22 10:00:00 2013, MaxMem=  131072000 cpu:       0.0
 (Enter /opt/cluster/additional/g03_64/l302.exe)
 NPDir=0 NMtPBC=     1 NCelOv=     1 NCel=       1 NClECP=     1 NCelD=      1
         NCelK=      1 NCelE2=     1 NClLst=     1 CellRange=     0.0.
 One-electron integrals computed using PRISM.
 NBasis=    70 RedAO= T  NBF=    70
 NBsUse=    70 1.00D-06 NBFU=    70
 Leave Link  302 at Mon Apr 22 10:00:02 2013, MaxMem=  131072000 cpu:       0.1
 (Enter /opt/cluster/additional/g03_64/l303.exe)
 DipDrv:  MaxL=1.
 Leave Link  303 at Mon Apr 22 10:00:03 2013, MaxMem=  131072000 cpu:       0.0
 (Enter /opt/cluster/additional/g03_64/l401.exe)
 Harris functional with IExCor=  205 diagonalized for initial guess.
 ExpMin= 1.61D-01 ExpMax= 7.00D+03 ExpMxC= 1.05D+03 IAcc=1 IRadAn=         1 AccDes= 1.00D-06
 HarFok:  IExCor= 205 AccDes= 1.00D-06 IRadAn=         1 IDoV=1
 ScaDFX=  1.000000  1.000000  1.000000  1.000000
 Harris En= -178.284366492134    
 Leave Link  401 at Mon Apr 22 10:00:05 2013, MaxMem=  131072000 cpu:       0.2
 (Enter /opt/cluster/additional/g03_64/l502.exe)
 Closed shell SCF:
 Requested convergence on RMS density matrix=1.00D-08 within 128 cycles.
 Requested convergence on MAX density matrix=1.00D-06.
 Requested convergence on             energy=1.00D-06.
 No special actions if energy rises.
 Using DIIS extrapolation, IDIIS=  1040.
 Two-electron integral symmetry not used.
 Keep R1 integrals in memory in canonical form, NReq=     4122798.
 IEnd=     35009 IEndB=     35009 NGot= 131072000 MDV= 127969733
 LenX= 127969733
 Symmetry not used in FoFDir.
 MinBra= 0 MaxBra= 2 Meth= 1.
 IRaf=       0 NMat=   1 IRICut=       1 DoRegI=T DoRafI=F ISym2E= 0 JSym2E=0.

 Cycle   1  Pass 1  IDiag  1:
 E= -177.921770526794    
 DIIS: error= 5.74D-02 at cycle   1 NSaved=   1.
 NSaved= 1 IEnMin= 1 EnMin= -177.921770526794     IErMin= 1 ErrMin= 5.74D-02
 ErrMax= 5.74D-02 EMaxC= 1.00D-01 BMatC= 2.29D-01 BMatP= 2.29D-01
 IDIUse=3 WtCom= 4.26D-01 WtEn= 5.74D-01
 Coeff-Com:  0.100D+01
 Coeff-En:   0.100D+01
 Coeff:      0.100D+01
 Gap=     0.845 Goal=   None    Shift=    0.000
 GapD=    0.845 DampG=2.000 DampE=0.500 DampFc=1.0000 IDamp=-1.
 RMSDP=6.39D-03 MaxDP=1.26D-01              OVMax= 1.39D-01

 Cycle   2  Pass 1  IDiag  1:
 E= -178.062438896576     Delta-E=       -0.140668369783 Rises=F Damp=F
 DIIS: error= 1.42D-02 at cycle   2 NSaved=   2.
 NSaved= 2 IEnMin= 2 EnMin= -178.062438896576     IErMin= 2 ErrMin= 1.42D-02
 ErrMax= 1.42D-02 EMaxC= 1.00D-01 BMatC= 2.54D-02 BMatP= 2.29D-01
 IDIUse=3 WtCom= 8.58D-01 WtEn= 1.42D-01
 Coeff-Com:  0.188D+00 0.812D+00
 Coeff-En:   0.000D+00 0.100D+01
 Coeff:      0.161D+00 0.839D+00
 Gap=     0.767 Goal=   None    Shift=    0.000
 RMSDP=2.00D-03 MaxDP=3.56D-02 DE=-1.41D-01 OVMax= 4.15D-02

 Cycle   3  Pass 1  IDiag  1:
 E= -178.083901228009     Delta-E=       -0.021462331433 Rises=F Damp=F
 DIIS: error= 2.83D-03 at cycle   3 NSaved=   3.
 NSaved= 3 IEnMin= 3 EnMin= -178.083901228009     IErMin= 3 ErrMin= 2.83D-03
 ErrMax= 2.83D-03 EMaxC= 1.00D-01 BMatC= 8.82D-04 BMatP= 2.54D-02
 IDIUse=3 WtCom= 9.72D-01 WtEn= 2.83D-02
 Coeff-Com: -0.232D-01 0.108D+00 0.915D+00
 Coeff-En:   0.000D+00 0.000D+00 0.100D+01
 Coeff:     -0.225D-01 0.105D+00 0.917D+00
 Gap=     0.730 Goal=   None    Shift=    0.000
 RMSDP=3.80D-04 MaxDP=7.27D-03 DE=-2.15D-02 OVMax= 8.81D-03

 Cycle   4  Pass 1  IDiag  1:
 E= -178.084860733923     Delta-E=       -0.000959505913 Rises=F Damp=F
 DIIS: error= 5.61D-04 at cycle   4 NSaved=   4.
 NSaved= 4 IEnMin= 4 EnMin= -178.084860733923     IErMin= 4 ErrMin= 5.61D-04
 ErrMax= 5.61D-04 EMaxC= 1.00D-01 BMatC= 2.42D-05 BMatP= 8.82D-04
 IDIUse=3 WtCom= 9.94D-01 WtEn= 5.61D-03
 Coeff-Com: -0.380D-02-0.295D-02 0.801D-01 0.927D+00
 Coeff-En:   0.000D+00 0.000D+00 0.000D+00 0.100D+01
 Coeff:     -0.378D-02-0.293D-02 0.797D-01 0.927D+00
 Gap=     0.730 Goal=   None    Shift=    0.000
 RMSDP=7.28D-05 MaxDP=9.83D-04 DE=-9.60D-04 OVMax= 1.68D-03

 Cycle   5  Pass 1  IDiag  1:
 E= -178.084885061330     Delta-E=       -0.000024327407 Rises=F Damp=F
 DIIS: error= 1.79D-04 at cycle   5 NSaved=   5.
 NSaved= 5 IEnMin= 5 EnMin= -178.084885061330     IErMin= 5 ErrMin= 1.79D-04
 ErrMax= 1.79D-04 EMaxC= 1.00D-01 BMatC= 3.62D-06 BMatP= 2.42D-05
 IDIUse=3 WtCom= 9.98D-01 WtEn= 1.79D-03
 Coeff-Com:  0.193D-02-0.145D-01-0.882D-01 0.202D+00 0.899D+00
 Coeff-En:   0.000D+00 0.000D+00 0.000D+00 0.000D+00 0.100D+01
 Coeff:      0.192D-02-0.145D-01-0.881D-01 0.201D+00 0.899D+00
 Gap=     0.730 Goal=   None    Shift=    0.000
 RMSDP=3.45D-05 MaxDP=3.79D-04 DE=-2.43D-05 OVMax= 6.28D-04

 Cycle   6  Pass 1  IDiag  1:
 E= -178.084889151724     Delta-E=       -0.000004090394 Rises=F Damp=F
 DIIS: error= 2.53D-05 at cycle   6 NSaved=   6.
 NSaved= 6 IEnMin= 6 EnMin= -178.084889151724     IErMin= 6 ErrMin= 2.53D-05
 ErrMax= 2.53D-05 EMaxC= 1.00D-01 BMatC= 8.90D-08 BMatP= 3.62D-06
 IDIUse=1 WtCom= 1.00D+00 WtEn= 0.00D+00
 Coeff-Com:  0.177D-03-0.113D-03-0.356D-02-0.520D-01-0.749D-02 0.106D+01
 Coeff:      0.177D-03-0.113D-03-0.356D-02-0.520D-01-0.749D-02 0.106D+01
 Gap=     0.730 Goal=   None    Shift=    0.000
 RMSDP=9.22D-06 MaxDP=1.21D-04 DE=-4.09D-06 OVMax= 1.93D-04

 Cycle   7  Pass 1  IDiag  1:
 E= -178.084889319084     Delta-E=       -0.000000167360 Rises=F Damp=F
 DIIS: error= 7.18D-06 at cycle   7 NSaved=   7.
 NSaved= 7 IEnMin= 7 EnMin= -178.084889319084     IErMin= 7 ErrMin= 7.18D-06
 ErrMax= 7.18D-06 EMaxC= 1.00D-01 BMatC= 3.65D-09 BMatP= 8.90D-08
 IDIUse=1 WtCom= 1.00D+00 WtEn= 0.00D+00
 Coeff-Com: -0.841D-04 0.552D-03 0.384D-02-0.529D-03-0.344D-01-0.137D+00
 Coeff-Com:  0.117D+01
 Coeff:     -0.841D-04 0.552D-03 0.384D-02-0.529D-03-0.344D-01-0.137D+00
 Coeff:      0.117D+01
 Gap=     0.730 Goal=   None    Shift=    0.000
 RMSDP=1.92D-06 MaxDP=2.32D-05 DE=-1.67D-07 OVMax= 3.02D-05

 Cycle   8  Pass 1  IDiag  1:
 E= -178.084889326430     Delta-E=       -0.000000007345 Rises=F Damp=F
 DIIS: error= 2.61D-06 at cycle   8 NSaved=   8.
 NSaved= 8 IEnMin= 8 EnMin= -178.084889326430     IErMin= 8 ErrMin= 2.61D-06
 ErrMax= 2.61D-06 EMaxC= 1.00D-01 BMatC= 2.88D-10 BMatP= 3.65D-09
 IDIUse=1 WtCom= 1.00D+00 WtEn= 0.00D+00
 Coeff-Com: -0.183D-04 0.479D-04 0.481D-03 0.262D-02-0.813D-03-0.690D-01
 Coeff-Com:  0.775D-01 0.989D+00
 Coeff:     -0.183D-04 0.479D-04 0.481D-03 0.262D-02-0.813D-03-0.690D-01
 Coeff:      0.775D-01 0.989D+00
 Gap=     0.730 Goal=   None    Shift=    0.000
 RMSDP=3.71D-07 MaxDP=6.68D-06 DE=-7.35D-09 OVMax= 8.18D-06

 Cycle   9  Pass 1  IDiag  1:
 E= -178.084889326910     Delta-E=       -0.000000000480 Rises=F Damp=F
 DIIS: error= 6.83D-07 at cycle   9 NSaved=   9.
 NSaved= 9 IEnMin= 9 EnMin= -178.084889326910     IErMin= 9 ErrMin= 6.83D-07
 ErrMax= 6.83D-07 EMaxC= 1.00D-01 BMatC= 2.44D-11 BMatP= 2.88D-10
 IDIUse=1 WtCom= 1.00D+00 WtEn= 0.00D+00
 Coeff-Com:  0.713D-05-0.441D-04-0.335D-03-0.164D-03 0.345D-02 0.141D-01
 Coeff-Com: -0.109D+00-0.496D-01 0.114D+01
 Coeff:      0.713D-05-0.441D-04-0.335D-03-0.164D-03 0.345D-02 0.141D-01
 Coeff:     -0.109D+00-0.496D-01 0.114D+01
 Gap=     0.730 Goal=   None    Shift=    0.000
 RMSDP=1.27D-07 MaxDP=1.38D-06 DE=-4.80D-10 OVMax= 2.45D-06

 Cycle  10  Pass 1  IDiag  1:
 E= -178.084889326958     Delta-E=       -0.000000000048 Rises=F Damp=F
 DIIS: error= 9.48D-08 at cycle  10 NSaved=  10.
 NSaved=10 IEnMin=10 EnMin= -178.084889326958     IErMin=10 ErrMin= 9.48D-08
 ErrMax= 9.48D-08 EMaxC= 1.00D-01 BMatC= 7.21D-13 BMatP= 2.44D-11
 IDIUse=1 WtCom= 1.00D+00 WtEn= 0.00D+00
 Coeff-Com:  0.949D-08 0.238D-05 0.831D-05-0.126D-03-0.203D-03 0.200D-02
 Coeff-Com:  0.524D-02-0.482D-01-0.729D-01 0.111D+01
 Coeff:      0.949D-08 0.238D-05 0.831D-05-0.126D-03-0.203D-03 0.200D-02
 Coeff:      0.524D-02-0.482D-01-0.729D-01 0.111D+01
 Gap=     0.730 Goal=   None    Shift=    0.000
 RMSDP=2.40D-08 MaxDP=2.98D-07 DE=-4.82D-11 OVMax= 4.31D-07

 Cycle  11  Pass 1  IDiag  1:
 E= -178.084889326959     Delta-E=       -0.000000000001 Rises=F Damp=F
 DIIS: error= 1.25D-08 at cycle  11 NSaved=  11.
 NSaved=11 IEnMin=11 EnMin= -178.084889326959     IErMin=11 ErrMin= 1.25D-08
 ErrMax= 1.25D-08 EMaxC= 1.00D-01 BMatC= 2.39D-14 BMatP= 7.21D-13
 IDIUse=1 WtCom= 1.00D+00 WtEn= 0.00D+00
 Coeff-Com: -0.221D-06 0.942D-06 0.838D-05 0.378D-04-0.473D-04-0.106D-02
 Coeff-Com:  0.249D-02 0.128D-01-0.170D-01-0.265D+00 0.127D+01
 Coeff:     -0.221D-06 0.942D-06 0.838D-05 0.378D-04-0.473D-04-0.106D-02
 Coeff:      0.249D-02 0.128D-01-0.170D-01-0.265D+00 0.127D+01
 Gap=     0.730 Goal=   None    Shift=    0.000
 RMSDP=4.93D-09 MaxDP=4.68D-08 DE=-7.39D-13 OVMax= 8.45D-08

 SCF Done:  E(RHF) =  -178.084889327     A.U. after   11 cycles
             Convg  =    0.4930D-08             -V/T =  2.0013
             S**2   =   0.0000
 KE= 1.778488132162D+02 PE=-5.812262762157D+02 EE= 1.452658833894D+02
 Leave Link  502 at Mon Apr 22 10:00:07 2013, MaxMem=  131072000 cpu:       0.8
 (Enter /opt/cluster/additional/g03_64/l801.exe)
 ExpMin= 1.61D-01 ExpMax= 7.00D+03 ExpMxC= 1.05D+03 IAcc=1 IRadAn=         1 AccDes= 1.00D-06
 HarFok:  IExCor= 205 AccDes= 1.00D-06 IRadAn=         1 IDoV=1
 ScaDFX=  1.000000  1.000000  1.000000  1.000000
 Largest valence mixing into a core orbital is  1.87D-04
 Largest core mixing into a valence orbital is  2.92D-05
 Range of M.O.s used for correlation:     4    70
 NBasis=    70 NAE=    13 NBE=    13 NFC=     3 NFV=     0
 NROrb=     67 NOA=    10 NOB=    10 NVA=    57 NVB=    57
 Leave Link  801 at Mon Apr 22 10:00:08 2013, MaxMem=  131072000 cpu:       0.1
 (Enter /opt/cluster/additional/g03_64/l906.exe)
 FulOut=F Deriv=F AODrv=F NAtomX=     8
   MMem=        2916  MDisk=          10 MDiskD=          10
  W3Min=       39900 MinDsk=      124175 NBas6D=          70
 NBas2D=        2581    NTT=        2485    LW2=     2000000
    MDV=   131066218 MDiskM=       25608 NBas2p=        2577
 Fully in-core method, ICMem=    12781961.
 IMap=   1   2   3   4   5   6   7   8   9  10
 JobTyp=1 Pass  1 fully in-core, NPsUse=  1.
 Compute canonical integrals, IntTyp=   4.
 Symmetry not used in FoFDir.
 MinBra= 0 MaxBra= 2 Meth= 1.
 IRaf=       0 NMat=   1 IRICut=       1 DoRegI=T DoRafI=F ISym2E= 0 JSym2E=0.
 Spin components of T(2) and E(2):
     alpha-alpha T2 =       0.1517323154D-01 E2=     -0.5474081926D-01
     alpha-beta  T2 =       0.9795899207D-01 E2=     -0.3533982892D+00
     beta-beta   T2 =       0.1517323154D-01 E2=     -0.5474081926D-01
 The integrals were generated   1 times.
 ANorm=    0.1062217235D+01
 E2 =    -0.4628799277D+00 EUMP2 =    -0.17854776925463D+03
 Leave Link  906 at Mon Apr 22 10:00:10 2013, MaxMem=  131072000 cpu:       0.9
 (Enter /opt/cluster/additional/g03_64/l601.exe)
 Copying SCF densities to generalized density rwf, ISCF=0 IROHF=0.

 **********************************************************************

            Population analysis using the SCF density.

 **********************************************************************

 Alpha  occ. eigenvalues --  -26.26928 -11.30397 -11.22451  -1.58532  -1.03022
 Alpha  occ. eigenvalues --   -0.86010  -0.70194  -0.69290  -0.65034  -0.57041
 Alpha  occ. eigenvalues --   -0.54781  -0.49861  -0.48744
 Alpha virt. eigenvalues --    0.24247   0.28603   0.29852   0.31023   0.33908
 Alpha virt. eigenvalues --    0.35549   0.41048   0.70347   0.73688   0.79746
 Alpha virt. eigenvalues --    0.81149   0.86890   0.89568   1.08106   1.08162
 Alpha virt. eigenvalues --    1.13660   1.14486   1.16194   1.19927   1.40500
 Alpha virt. eigenvalues --    1.51026   1.51184   1.62978   1.70652   1.71622
 Alpha virt. eigenvalues --    1.93148   1.94388   2.07114   2.11034   2.21113
 Alpha virt. eigenvalues --    2.26034   2.32625   2.33820   2.35158   2.36921
 Alpha virt. eigenvalues --    2.39223   2.41185   2.56873   2.57403   2.64830
 Alpha virt. eigenvalues --    2.78178   2.79883   2.99819   3.09070   3.10404
 Alpha virt. eigenvalues --    3.13638   3.24699   3.25244   3.43957   3.53780
 Alpha virt. eigenvalues --    3.63701   3.74318   3.83091   3.89074   4.60486
 Alpha virt. eigenvalues --    4.75075   4.99575
          Condensed to atoms (all electrons):
              1          2          3          4          5          6
     1  C    4.519581   0.212015   0.348395   0.404458   0.404457  -0.034373
     2  F    0.212015   9.291157  -0.037537  -0.030693  -0.030696   0.000871
     3  C    0.348395  -0.037537   4.987133  -0.049214  -0.049221   0.398429
     4  H    0.404458  -0.030693  -0.049214   0.622775  -0.046151  -0.006080
     5  H    0.404457  -0.030696  -0.049221  -0.046151   0.622802   0.004836
     6  H   -0.034373   0.000871   0.398429  -0.006080   0.004836   0.563190
     7  H   -0.034365   0.000871   0.398433   0.004834  -0.006083  -0.031234
     8  H   -0.032757   0.002267   0.378733   0.000529   0.000530  -0.025633
              7          8
     1  C   -0.034365  -0.032757
     2  F    0.000871   0.002267
     3  C    0.398433   0.378733
     4  H    0.004834   0.000529
     5  H   -0.006083   0.000530
     6  H   -0.031234  -0.025633
     7  H    0.563191  -0.025636
     8  H   -0.025636   0.590197
 Mulliken atomic charges:
              1
     1  C    0.212589
     2  F   -0.408254
     3  C   -0.375152
     4  H    0.099541
     5  H    0.099525
     6  H    0.129994
     7  H    0.129988
     8  H    0.111769
 Sum of Mulliken charges=   0.00000
 Atomic charges with hydrogens summed into heavy atoms:
              1
     1  C    0.411655
     2  F   -0.408254
     3  C   -0.003401
     4  H    0.000000
     5  H    0.000000
     6  H    0.000000
     7  H    0.000000
     8  H    0.000000
 Sum of Mulliken charges=   0.00000
 Electronic spatial extent (au):  <R**2>=   371.8881
 Charge=     0.0000 electrons
 Dipole moment (field-independent basis, Debye):
    X=     0.7623    Y=    -1.0459    Z=     1.3535  Tot=     1.8727
 Quadrupole moment (field-independent basis, Debye-Ang):
   XX=   -17.1486   YY=   -18.9427   ZZ=   -19.5891
   XY=    -0.5166   XZ=     0.6380   YZ=     1.0854
 Traceless Quadrupole moment (field-independent basis, Debye-Ang):
   XX=     1.4115   YY=    -0.3825   ZZ=    -1.0289
   XY=    -0.5166   XZ=     0.6380   YZ=     1.0854
 Octapole moment (field-independent basis, Debye-Ang**2):
  XXX=   -83.7235  YYY=    -5.4618  ZZZ=     9.6114  XYY=   -28.3767
  XXY=    -1.7495  XXZ=     2.7989  XZZ=   -28.7121  YZZ=    -2.8877
  YYZ=     3.6039  XYZ=     0.5670
 Hexadecapole moment (field-independent basis, Debye-Ang**3):
 XXXX=  -379.4320 YYYY=   -43.1670 ZZZZ=   -53.8770 XXXY=     1.8233
 XXXZ=    -0.0945 YYYX=     2.3924 YYYZ=     9.0600 ZZZX=     0.9822
 ZZZY=     9.3437 XXYY=   -68.8539 XXZZ=   -70.5614 YYZZ=   -16.4506
 XXYZ=     3.0145 YYXZ=     1.4074 ZZXY=    -1.7675
 N-N= 8.002669028316D+01 E-N=-5.812262761875D+02  KE= 1.778488132162D+02
 Leave Link  601 at Mon Apr 22 10:00:12 2013, MaxMem=  131072000 cpu:       0.0
 (Enter /opt/cluster/additional/g03_64/l9999.exe)
 1\1\GINC-NODE17\SP\RMP2-FC\6-31G(d,p)\C2H5F1\BEREAU\22-Apr-2013\0\\#P 
 MP2/6-31G** nosymm\\fluoroethane single point\\0,1\C,0,1.029,-0.0891,0
 .0771\F,0,0.5852,0.6969,-0.9388\C,0,2.5393,-0.0776,0.0767\H,0,0.6301,0
 .3081,1.0142\H,0,0.6406,-1.099,-0.0791\H,0,2.9125,0.9434,0.2018\H,0,2.
 9229,-0.4479,-0.8789\H,0,2.9361,-0.7007,0.8827\\Version=AM64L-G03RevD.
 02\HF=-178.0848893\MP2=-178.5477693\RMSD=4.930e-09\Thermal=0.\PG=C01 [
 X(C2H5F1)]\\@


 COLLEGE PROFESSOR: SOMEONE WHO TALKS IN OTHER PEOPLE'S SLEEP.
 Job cpu time:  0 days  0 hours  0 minutes 15.8 seconds.
 File lengths (MBytes):  RWF=     13 Int=      0 D2E=      0 Chk=     10 Scr=      1
 Normal termination of Gaussian 03 at Mon Apr 22 10:00:13 2013.
