 Entering Gaussian System, Link 0=/opt/cluster/additional/g03_64/g03
 Initial command:
 /opt/cluster/additional/g03_64/l1.exe /scratch/bereau/g03_944/Gau-3645.inp -scrdir=/scratch/bereau/g03_944/
 Entering Link 1 = /opt/cluster/additional/g03_64/l1.exe PID=      3646.
  
 Copyright (c) 1988,1990,1992,1993,1995,1998,2003,2004, Gaussian, Inc.
                  All Rights Reserved.
  
 This is the Gaussian(R) 03 program.  It is based on the
 the Gaussian(R) 98 system (copyright 1998, Gaussian, Inc.),
 the Gaussian(R) 94 system (copyright 1995, Gaussian, Inc.),
 the Gaussian 92(TM) system (copyright 1992, Gaussian, Inc.),
 the Gaussian 90(TM) system (copyright 1990, Gaussian, Inc.),
 the Gaussian 88(TM) system (copyright 1988, Gaussian, Inc.),
 the Gaussian 86(TM) system (copyright 1986, Carnegie Mellon
 University), and the Gaussian 82(TM) system (copyright 1983,
 Carnegie Mellon University). Gaussian is a federally registered
 trademark of Gaussian, Inc.
  
 This software contains proprietary and confidential information,
 including trade secrets, belonging to Gaussian, Inc.
  
 This software is provided under written license and may be
 used, copied, transmitted, or stored only in accord with that
 written license.
  
 The following legend is applicable only to US Government
 contracts under FAR:
  
                    RESTRICTED RIGHTS LEGEND
  
 Use, reproduction and disclosure by the US Government is
 subject to restrictions as set forth in subparagraphs (a)
 and (c) of the Commercial Computer Software - Restricted
 Rights clause in FAR 52.227-19.
  
 Gaussian, Inc.
 340 Quinnipiac St., Bldg. 40, Wallingford CT 06492
  
  
 ---------------------------------------------------------------
 Warning -- This program may not be used in any manner that
 competes with the business of Gaussian, Inc. or will provide
 assistance to any competitor of Gaussian, Inc.  The licensee
 of this program is prohibited from giving any competitor of
 Gaussian, Inc. access to this program.  By using this program,
 the user acknowledges that Gaussian, Inc. is engaged in the
 business of creating and licensing software in the field of
 computational chemistry and represents and warrants to the
 licensee that it is not a competitor of Gaussian, Inc. and that
 it will not use this program in any manner prohibited above.
 ---------------------------------------------------------------
  

 Cite this work as:
 Gaussian 03, Revision D.02,
 M. J. Frisch, G. W. Trucks, H. B. Schlegel, G. E. Scuseria, 
 M. A. Robb, J. R. Cheeseman, J. A. Montgomery, Jr., T. Vreven, 
 K. N. Kudin, J. C. Burant, J. M. Millam, S. S. Iyengar, J. Tomasi, 
 V. Barone, B. Mennucci, M. Cossi, G. Scalmani, N. Rega, 
 G. A. Petersson, H. Nakatsuji, M. Hada, M. Ehara, K. Toyota, 
 R. Fukuda, J. Hasegawa, M. Ishida, T. Nakajima, Y. Honda, O. Kitao, 
 H. Nakai, M. Klene, X. Li, J. E. Knox, H. P. Hratchian, J. B. Cross, 
 V. Bakken, C. Adamo, J. Jaramillo, R. Gomperts, R. E. Stratmann, 
 O. Yazyev, A. J. Austin, R. Cammi, C. Pomelli, J. W. Ochterski, 
 P. Y. Ayala, K. Morokuma, G. A. Voth, P. Salvador, J. J. Dannenberg, 
 V. G. Zakrzewski, S. Dapprich, A. D. Daniels, M. C. Strain, 
 O. Farkas, D. K. Malick, A. D. Rabuck, K. Raghavachari, 
 J. B. Foresman, J. V. Ortiz, Q. Cui, A. G. Baboul, S. Clifford, 
 J. Cioslowski, B. B. Stefanov, G. Liu, A. Liashenko, P. Piskorz, 
 I. Komaromi, R. L. Martin, D. J. Fox, T. Keith, M. A. Al-Laham, 
 C. Y. Peng, A. Nanayakkara, M. Challacombe, P. M. W. Gill, 
 B. Johnson, W. Chen, M. W. Wong, C. Gonzalez, and J. A. Pople, 
 Gaussian, Inc., Wallingford CT, 2004.
 
 ******************************************
 Gaussian 03:  AM64L-G03RevD.02  1-Mar-2006
                17-Sep-2013 
 ******************************************
 %NPROC=1
 Will use up to    1 processors via shared memory.
 %Chk=/storage/bereau/multipoles/co2/co2/co2.chk
 %Mem=1000MB
 -------------------------
 #P MP2/aug-cc-PVDZ nosymm
 -------------------------
 1/38=1/1;
 2/15=1,17=6,18=5,40=1/2;
 3/5=16,7=10,11=9,16=1,25=1,30=1/1,2,3;
 4//1;
 5/5=2,38=5/2;
 8/10=1/1;
 9/16=-3/6;
 6/7=2,8=2,9=2,10=2/1;
 99/5=1,9=1/99;
 Leave Link    1 at Tue Sep 17 17:22:12 2013, MaxMem=  131072000 cpu:       0.1
 (Enter /opt/cluster/additional/g03_64/l101.exe)
 ----------------
 co2 single point
 ----------------
 Symbolic Z-matrix:
 Charge =  0 Multiplicity = 1
 O                     1.0947    0.02223   0.00068 
 C                     2.29155   0.02223   0.00068 
 O                     3.4884    0.02223   0.00068 
 
                    Isotopes and Nuclear Properties:
 (Nuclear quadrupole moments (NQMom) in fm**2, nuclear magnetic moments (NMagM)
  in nuclear magnetons)

  Atom         1           2           3
 IAtWgt=          16          12          16
 AtmWgt=  15.9949146  12.0000000  15.9949146
 NucSpn=           0           0           0
 AtZEff=   0.0000000   0.0000000   0.0000000
 NQMom=    0.0000000   0.0000000   0.0000000
 NMagM=    0.0000000   0.0000000   0.0000000
 Leave Link  101 at Tue Sep 17 17:22:13 2013, MaxMem=  131072000 cpu:       0.1
 (Enter /opt/cluster/additional/g03_64/l202.exe)
                          Input orientation:                          
 ---------------------------------------------------------------------
 Center     Atomic     Atomic              Coordinates (Angstroms)
 Number     Number      Type              X           Y           Z
 ---------------------------------------------------------------------
    1          8             0        1.094700    0.022230    0.000680
    2          6             0        2.291550    0.022230    0.000680
    3          8             0        3.488400    0.022230    0.000680
 ---------------------------------------------------------------------
                    Distance matrix (angstroms):
                    1          2          3
     1  O    0.000000
     2  C    1.196850   0.000000
     3  O    2.393700   1.196850   0.000000
 Symmetry turned off by external request.
 Stoichiometry    CO2
 Framework group  D*H[O(C),C*(O.O)]
 Deg. of freedom     1
 Full point group                 D*H
 Rotational constants (GHZ):      0.0000000     11.0287382     11.0287382
 Leave Link  202 at Tue Sep 17 17:22:15 2013, MaxMem=  131072000 cpu:       0.1
 (Enter /opt/cluster/additional/g03_64/l301.exe)
 Standard basis: Aug-CC-pVDZ (5D, 7F)
 Integral buffers will be    131072 words long.
 Raffenetti 1 integral format.
 Two-electron integral symmetry is turned off.
    69 basis functions,   129 primitive gaussians,    75 cartesian basis functions
    11 alpha electrons       11 beta electrons
       nuclear repulsion energy        56.5941284726 Hartrees.
 IExCor=   0 DFT=F Ex=HF Corr=None ExCW=0 ScaHFX=  1.000000
 ScaDFX=  1.000000  1.000000  1.000000  1.000000
 IRadAn=      0 IRanWt=     -1 IRanGd=            0 ICorTp=0
 NAtoms=    3 NActive=    3 NUniq=    3 SFac= 7.50D-01 NAtFMM=   80 NAOKFM=F Big=F
 Leave Link  301 at Tue Sep 17 17:22:16 2013, MaxMem=  131072000 cpu:       0.0
 (Enter /opt/cluster/additional/g03_64/l302.exe)
 NPDir=0 NMtPBC=     1 NCelOv=     1 NCel=       1 NClECP=     1 NCelD=      1
         NCelK=      1 NCelE2=     1 NClLst=     1 CellRange=     0.0.
 One-electron integrals computed using PRISM.
 NBasis=    69 RedAO= T  NBF=    69
 NBsUse=    69 1.00D-06 NBFU=    69
 Leave Link  302 at Tue Sep 17 17:22:18 2013, MaxMem=  131072000 cpu:       0.1
 (Enter /opt/cluster/additional/g03_64/l303.exe)
 DipDrv:  MaxL=1.
 Leave Link  303 at Tue Sep 17 17:22:23 2013, MaxMem=  131072000 cpu:       0.0
 (Enter /opt/cluster/additional/g03_64/l401.exe)
 Harris functional with IExCor=  205 diagonalized for initial guess.
 ExpMin= 4.04D-02 ExpMax= 1.17D+04 ExpMxC= 4.01D+02 IAcc=2 IRadAn=         4 AccDes= 0.00D+00
 HarFok:  IExCor= 205 AccDes= 0.00D+00 IRadAn=         4 IDoV=1
 ScaDFX=  1.000000  1.000000  1.000000  1.000000
 Harris En= -187.679744779822    
 Leave Link  401 at Tue Sep 17 17:22:27 2013, MaxMem=  131072000 cpu:       0.2
 (Enter /opt/cluster/additional/g03_64/l502.exe)
 Closed shell SCF:
 Requested convergence on RMS density matrix=1.00D-08 within 128 cycles.
 Requested convergence on MAX density matrix=1.00D-06.
 Requested convergence on             energy=1.00D-06.
 No special actions if energy rises.
 Using DIIS extrapolation, IDIIS=  1040.
 Two-electron integral symmetry not used.
 Keep R1 integrals in memory in canonical form, NReq=     5139728.
 IEnd=     37589 IEndB=     37589 NGot= 131072000 MDV= 126994063
 LenX= 126994063
 Symmetry not used in FoFDir.
 MinBra= 0 MaxBra= 2 Meth= 1.
 IRaf=       0 NMat=   1 IRICut=       1 DoRegI=T DoRafI=F ISym2E= 0 JSym2E=0.

 Cycle   1  Pass 1  IDiag  1:
 E= -187.576828697798    
 DIIS: error= 5.26D-02 at cycle   1 NSaved=   1.
 NSaved= 1 IEnMin= 1 EnMin= -187.576828697798     IErMin= 1 ErrMin= 5.26D-02
 ErrMax= 5.26D-02 EMaxC= 1.00D-01 BMatC= 1.46D-01 BMatP= 1.46D-01
 IDIUse=3 WtCom= 4.74D-01 WtEn= 5.26D-01
 Coeff-Com:  0.100D+01
 Coeff-En:   0.100D+01
 Coeff:      0.100D+01
 Gap=     0.673 Goal=   None    Shift=    0.000
 GapD=    0.673 DampG=2.000 DampE=0.500 DampFc=1.0000 IDamp=-1.
 RMSDP=4.25D-03 MaxDP=7.65D-02              OVMax= 7.71D-02

 Cycle   2  Pass 1  IDiag  1:
 E= -187.624547564732     Delta-E=       -0.047718866934 Rises=F Damp=F
 DIIS: error= 2.31D-02 at cycle   2 NSaved=   2.
 NSaved= 2 IEnMin= 2 EnMin= -187.624547564732     IErMin= 2 ErrMin= 2.31D-02
 ErrMax= 2.31D-02 EMaxC= 1.00D-01 BMatC= 3.66D-02 BMatP= 1.46D-01
 IDIUse=3 WtCom= 7.69D-01 WtEn= 2.31D-01
 Coeff-Com:  0.297D+00 0.703D+00
 Coeff-En:   0.723D-01 0.928D+00
 Coeff:      0.245D+00 0.755D+00
 Gap=     0.609 Goal=   None    Shift=    0.000
 RMSDP=1.99D-03 MaxDP=3.32D-02 DE=-4.77D-02 OVMax= 5.87D-02

 Cycle   3  Pass 1  IDiag  1:
 E= -187.648054606736     Delta-E=       -0.023507042003 Rises=F Damp=F
 DIIS: error= 9.91D-03 at cycle   3 NSaved=   3.
 NSaved= 3 IEnMin= 3 EnMin= -187.648054606736     IErMin= 3 ErrMin= 9.91D-03
 ErrMax= 9.91D-03 EMaxC= 1.00D-01 BMatC= 5.03D-03 BMatP= 3.66D-02
 IDIUse=3 WtCom= 9.01D-01 WtEn= 9.91D-02
 Coeff-Com: -0.395D-01 0.236D+00 0.804D+00
 Coeff-En:   0.000D+00 0.000D+00 0.100D+01
 Coeff:     -0.356D-01 0.212D+00 0.823D+00
 Gap=     0.598 Goal=   None    Shift=    0.000
 RMSDP=5.95D-04 MaxDP=1.27D-02 DE=-2.35D-02 OVMax= 1.14D-02

 Cycle   4  Pass 1  IDiag  1:
 E= -187.651349649004     Delta-E=       -0.003295042268 Rises=F Damp=F
 DIIS: error= 7.29D-04 at cycle   4 NSaved=   4.
 NSaved= 4 IEnMin= 4 EnMin= -187.651349649004     IErMin= 4 ErrMin= 7.29D-04
 ErrMax= 7.29D-04 EMaxC= 1.00D-01 BMatC= 3.19D-05 BMatP= 5.03D-03
 IDIUse=3 WtCom= 9.93D-01 WtEn= 7.29D-03
 Coeff-Com: -0.413D-02-0.163D-01 0.113D-01 0.101D+01
 Coeff-En:   0.000D+00 0.000D+00 0.000D+00 0.100D+01
 Coeff:     -0.410D-02-0.162D-01 0.112D-01 0.101D+01
 Gap=     0.596 Goal=   None    Shift=    0.000
 RMSDP=8.85D-05 MaxDP=1.95D-03 DE=-3.30D-03 OVMax= 3.17D-03

 Cycle   5  Pass 1  IDiag  1:
 E= -187.651402833340     Delta-E=       -0.000053184336 Rises=F Damp=F
 DIIS: error= 3.98D-04 at cycle   5 NSaved=   5.
 NSaved= 5 IEnMin= 5 EnMin= -187.651402833340     IErMin= 5 ErrMin= 3.98D-04
 ErrMax= 3.98D-04 EMaxC= 1.00D-01 BMatC= 5.43D-06 BMatP= 3.19D-05
 IDIUse=3 WtCom= 9.96D-01 WtEn= 3.98D-03
 Coeff-Com:  0.361D-02-0.171D-01-0.865D-01-0.496D-01 0.115D+01
 Coeff-En:   0.000D+00 0.000D+00 0.000D+00 0.000D+00 0.100D+01
 Coeff:      0.359D-02-0.170D-01-0.862D-01-0.494D-01 0.115D+01
 Gap=     0.597 Goal=   None    Shift=    0.000
 RMSDP=4.50D-05 MaxDP=1.07D-03 DE=-5.32D-05 OVMax= 9.55D-04

 Cycle   6  Pass 1  IDiag  1:
 E= -187.651409818665     Delta-E=       -0.000006985325 Rises=F Damp=F
 DIIS: error= 7.33D-05 at cycle   6 NSaved=   6.
 NSaved= 6 IEnMin= 6 EnMin= -187.651409818665     IErMin= 6 ErrMin= 7.33D-05
 ErrMax= 7.33D-05 EMaxC= 1.00D-01 BMatC= 1.31D-07 BMatP= 5.43D-06
 IDIUse=1 WtCom= 1.00D+00 WtEn= 0.00D+00
 Coeff-Com: -0.937D-03 0.616D-02 0.271D-01-0.121D-01-0.416D+00 0.140D+01
 Coeff:     -0.937D-03 0.616D-02 0.271D-01-0.121D-01-0.416D+00 0.140D+01
 Gap=     0.597 Goal=   None    Shift=    0.000
 RMSDP=1.00D-05 MaxDP=1.82D-04 DE=-6.99D-06 OVMax= 2.77D-04

 Cycle   7  Pass 1  IDiag  1:
 E= -187.651410126203     Delta-E=       -0.000000307538 Rises=F Damp=F
 DIIS: error= 9.44D-06 at cycle   7 NSaved=   7.
 NSaved= 7 IEnMin= 7 EnMin= -187.651410126203     IErMin= 7 ErrMin= 9.44D-06
 ErrMax= 9.44D-06 EMaxC= 1.00D-01 BMatC= 2.86D-09 BMatP= 1.31D-07
 IDIUse=1 WtCom= 1.00D+00 WtEn= 0.00D+00
 Coeff-Com:  0.147D-03-0.104D-02-0.465D-02 0.245D-02 0.844D-01-0.388D+00
 Coeff-Com:  0.131D+01
 Coeff:      0.147D-03-0.104D-02-0.465D-02 0.245D-02 0.844D-01-0.388D+00
 Coeff:      0.131D+01
 Gap=     0.597 Goal=   None    Shift=    0.000
 RMSDP=1.39D-06 MaxDP=2.48D-05 DE=-3.08D-07 OVMax= 4.20D-05

 Cycle   8  Pass 1  IDiag  1:
 E= -187.651410132181     Delta-E=       -0.000000005979 Rises=F Damp=F
 DIIS: error= 8.34D-07 at cycle   8 NSaved=   8.
 NSaved= 8 IEnMin= 8 EnMin= -187.651410132181     IErMin= 8 ErrMin= 8.34D-07
 ErrMax= 8.34D-07 EMaxC= 1.00D-01 BMatC= 2.65D-11 BMatP= 2.86D-09
 IDIUse=1 WtCom= 1.00D+00 WtEn= 0.00D+00
 Coeff-Com: -0.205D-04 0.141D-03 0.612D-03-0.551D-03-0.120D-01 0.635D-01
 Coeff-Com: -0.288D+00 0.124D+01
 Coeff:     -0.205D-04 0.141D-03 0.612D-03-0.551D-03-0.120D-01 0.635D-01
 Coeff:     -0.288D+00 0.124D+01
 Gap=     0.597 Goal=   None    Shift=    0.000
 RMSDP=1.31D-07 MaxDP=2.15D-06 DE=-5.98D-09 OVMax= 3.31D-06

 Cycle   9  Pass 1  IDiag  1:
 E= -187.651410132234     Delta-E=       -0.000000000053 Rises=F Damp=F
 DIIS: error= 8.96D-08 at cycle   9 NSaved=   9.
 NSaved= 9 IEnMin= 9 EnMin= -187.651410132234     IErMin= 9 ErrMin= 8.96D-08
 ErrMax= 8.96D-08 EMaxC= 1.00D-01 BMatC= 2.41D-13 BMatP= 2.65D-11
 IDIUse=1 WtCom= 1.00D+00 WtEn= 0.00D+00
 Coeff-Com:  0.362D-05-0.230D-04-0.104D-03 0.103D-03 0.208D-02-0.111D-01
 Coeff-Com:  0.530D-01-0.278D+00 0.123D+01
 Coeff:      0.362D-05-0.230D-04-0.104D-03 0.103D-03 0.208D-02-0.111D-01
 Coeff:      0.530D-01-0.278D+00 0.123D+01
 Gap=     0.597 Goal=   None    Shift=    0.000
 RMSDP=1.22D-08 MaxDP=9.55D-08 DE=-5.27D-11 OVMax= 2.56D-07

 Cycle  10  Pass 1  IDiag  1:
 E= -187.651410132235     Delta-E=       -0.000000000001 Rises=F Damp=F
 DIIS: error= 6.26D-09 at cycle  10 NSaved=  10.
 NSaved=10 IEnMin=10 EnMin= -187.651410132235     IErMin=10 ErrMin= 6.26D-09
 ErrMax= 6.26D-09 EMaxC= 1.00D-01 BMatC= 2.67D-15 BMatP= 2.41D-13
 IDIUse=1 WtCom= 1.00D+00 WtEn= 0.00D+00
 Coeff-Com: -0.262D-06 0.160D-05 0.706D-05-0.773D-05-0.129D-03 0.590D-03
 Coeff-Com: -0.237D-02 0.153D-01-0.134D+00 0.112D+01
 Coeff:     -0.262D-06 0.160D-05 0.706D-05-0.773D-05-0.129D-03 0.590D-03
 Coeff:     -0.237D-02 0.153D-01-0.134D+00 0.112D+01
 Gap=     0.597 Goal=   None    Shift=    0.000
 RMSDP=9.62D-10 MaxDP=9.82D-09 DE=-7.39D-13 OVMax= 1.72D-08

 SCF Done:  E(RHF) =  -187.651410132     A.U. after   10 cycles
             Convg  =    0.9619D-09             -V/T =  2.0036
             S**2   =   0.0000
 KE= 1.869729710815D+02 PE=-5.557479034147D+02 EE= 1.245293937284D+02
 Leave Link  502 at Tue Sep 17 17:22:32 2013, MaxMem=  131072000 cpu:       1.1
 (Enter /opt/cluster/additional/g03_64/l801.exe)
 ExpMin= 4.04D-02 ExpMax= 1.17D+04 ExpMxC= 4.01D+02 IAcc=3 IRadAn=         5 AccDes= 0.00D+00
 HarFok:  IExCor= 205 AccDes= 0.00D+00 IRadAn=         5 IDoV=1
 ScaDFX=  1.000000  1.000000  1.000000  1.000000
 Largest valence mixing into a core orbital is  1.07D-04
 Largest core mixing into a valence orbital is  4.44D-05
 Range of M.O.s used for correlation:     4    69
 NBasis=    69 NAE=    11 NBE=    11 NFC=     3 NFV=     0
 NROrb=     66 NOA=     8 NOB=     8 NVA=    58 NVB=    58

 **** Warning!!: The largest alpha MO coefficient is  0.10389285D+02

 Leave Link  801 at Tue Sep 17 17:22:36 2013, MaxMem=  131072000 cpu:       0.2
 (Enter /opt/cluster/additional/g03_64/l906.exe)
 FulOut=F Deriv=F AODrv=F NAtomX=     3
   MMem=        3260  MDisk=           8 MDiskD=           8
  W3Min=       34800 MinDsk=      124762 NBas6D=          75
 NBas2D=        2967    NTT=        2850    LW2=     2000000
    MDV=   131066111 MDiskM=       23901 NBas2p=        2966
 Fully in-core method, ICMem=    14929764.
 IMap=   1   2   3   4   5   6   7   8
 JobTyp=1 Pass  1 fully in-core, NPsUse=  1.
 Compute canonical integrals, IntTyp=   4.
 Symmetry not used in FoFDir.
 MinBra= 0 MaxBra= 2 Meth= 1.
 IRaf=       0 NMat=   1 IRICut=       1 DoRegI=T DoRafI=F ISym2E= 0 JSym2E=0.
 Spin components of T(2) and E(2):
     alpha-alpha T2 =       0.2320703382D-01 E2=     -0.7246150590D-01
     alpha-beta  T2 =       0.1146915332D+00 E2=     -0.3723864788D+00
     beta-beta   T2 =       0.2320703382D-01 E2=     -0.7246150590D-01
 The integrals were generated   1 times.
 ANorm=    0.1077546102D+01
 E2 =    -0.5173094906D+00 EUMP2 =    -0.18816871962282D+03
 Leave Link  906 at Tue Sep 17 17:23:24 2013, MaxMem=  131072000 cpu:       1.1
 (Enter /opt/cluster/additional/g03_64/l601.exe)
 Copying SCF densities to generalized density rwf, ISCF=0 IROHF=0.

 **********************************************************************

            Population analysis using the SCF density.

 **********************************************************************

 Alpha  occ. eigenvalues --  -20.67233 -20.67230 -11.49491  -1.51780  -1.46538
 Alpha  occ. eigenvalues --   -0.80782  -0.73939  -0.70110  -0.70110  -0.54298
 Alpha  occ. eigenvalues --   -0.54298
 Alpha virt. eigenvalues --    0.05368   0.08654   0.08654   0.09300   0.18035
 Alpha virt. eigenvalues --    0.18035   0.19871   0.21426   0.21426   0.24130
 Alpha virt. eigenvalues --    0.26720   0.29847   0.29847   0.36726   0.40260
 Alpha virt. eigenvalues --    0.40260   0.47388   0.69957   0.69957   0.71667
 Alpha virt. eigenvalues --    0.72474   0.72474   0.78525   0.94662   0.96421
 Alpha virt. eigenvalues --    0.96421   1.04598   1.07697   1.07697   1.16124
 Alpha virt. eigenvalues --    1.16124   1.30249   1.30249   1.32792   1.54562
 Alpha virt. eigenvalues --    1.60511   1.60511   1.74586   1.74586   1.74893
 Alpha virt. eigenvalues --    1.74893   1.88294   2.28379   2.28379   2.52722
 Alpha virt. eigenvalues --    2.77878   2.78340   3.45675   3.51704   3.51704
 Alpha virt. eigenvalues --    3.62077   3.62077   3.62877   3.62877   3.86983
 Alpha virt. eigenvalues --    3.86983   4.07754   4.11912
          Condensed to atoms (all electrons):
              1          2          3
     1  O    7.883441   0.493415  -0.050274
     2  C    0.493415   4.360007   0.493415
     3  O   -0.050274   0.493415   7.883441
 Mulliken atomic charges:
              1
     1  O   -0.326582
     2  C    0.653163
     3  O   -0.326582
 Sum of Mulliken charges=   0.00000
 Atomic charges with hydrogens summed into heavy atoms:
              1
     1  O   -0.326582
     2  C    0.653163
     3  O   -0.326582
 Sum of Mulliken charges=   0.00000
 Electronic spatial extent (au):  <R**2>=   531.9184
 Charge=     0.0000 electrons
 Dipole moment (field-independent basis, Debye):
    X=     0.0000    Y=     0.0000    Z=     0.0000  Tot=     0.0000
 Quadrupole moment (field-independent basis, Debye-Ang):
   XX=   -20.3065   YY=   -15.0535   ZZ=   -15.0535
   XY=     0.0000   XZ=     0.0000   YZ=     0.0000
 Traceless Quadrupole moment (field-independent basis, Debye-Ang):
   XX=    -3.5020   YY=     1.7510   ZZ=     1.7510
   XY=     0.0000   XZ=     0.0000   YZ=     0.0000
 Octapole moment (field-independent basis, Debye-Ang**2):
  XXX=  -139.5998  YYY=    -1.0039  ZZZ=    -0.0307  XYY=   -34.4959
  XXY=    -0.4514  XXZ=    -0.0138  XZZ=   -34.4959  YZZ=    -0.3346
  YYZ=    -0.0102  XYZ=     0.0000
 Hexadecapole moment (field-independent basis, Debye-Ang**3):
 XXXX=  -749.5990 YYYY=   -12.0182 ZZZZ=   -11.9736 XXXY=    -3.1033
 XXXZ=    -0.0949 YYYX=    -2.3005 YYYZ=    -0.0007 ZZZX=    -0.0704
 ZZZY=    -0.0007 XXYY=   -99.4133 XXZZ=   -99.4033 YYZZ=    -3.9986
 XXYZ=    -0.0003 YYXZ=    -0.0235 ZZXY=    -0.7668
 N-N= 5.659412847257D+01 E-N=-5.557479033727D+02  KE= 1.869729710815D+02
 Leave Link  601 at Tue Sep 17 17:23:26 2013, MaxMem=  131072000 cpu:       0.0
 (Enter /opt/cluster/additional/g03_64/l9999.exe)
 1\1\GINC-NODE20\SP\RMP2-FC\Aug-CC-pVDZ\C1O2\BEREAU\17-Sep-2013\0\\#P M
 P2/aug-cc-PVDZ nosymm\\co2 single point\\0,1\O,0,1.0947,0.02223,0.0006
 8\C,0,2.29155,0.02223,0.00068\O,0,3.4884,0.02223,0.00068\\Version=AM64
 L-G03RevD.02\HF=-187.6514101\MP2=-188.1687196\RMSD=9.619e-10\Thermal=0
 .\PG=D*H [O(C1),C*(O1.O1)]\\@


 Children are likely to live up to what you believe of them.
 -- Lady Bird Johnson
 Job cpu time:  0 days  0 hours  0 minutes 17.5 seconds.
 File lengths (MBytes):  RWF=     13 Int=      0 D2E=      0 Chk=     10 Scr=      1
 Normal termination of Gaussian 03 at Tue Sep 17 17:23:28 2013.
