 Entering Gaussian System, Link 0=/opt/cluster/additional/g03_64/g03
 Initial command:
 /opt/cluster/additional/g03_64/l1.exe /scratch/bereau/g03_5825/Gau-19238.inp -scrdir=/scratch/bereau/g03_5825/
 Entering Link 1 = /opt/cluster/additional/g03_64/l1.exe PID=     19239.
  
 Copyright (c) 1988,1990,1992,1993,1995,1998,2003,2004, Gaussian, Inc.
                  All Rights Reserved.
  
 This is the Gaussian(R) 03 program.  It is based on the
 the Gaussian(R) 98 system (copyright 1998, Gaussian, Inc.),
 the Gaussian(R) 94 system (copyright 1995, Gaussian, Inc.),
 the Gaussian 92(TM) system (copyright 1992, Gaussian, Inc.),
 the Gaussian 90(TM) system (copyright 1990, Gaussian, Inc.),
 the Gaussian 88(TM) system (copyright 1988, Gaussian, Inc.),
 the Gaussian 86(TM) system (copyright 1986, Carnegie Mellon
 University), and the Gaussian 82(TM) system (copyright 1983,
 Carnegie Mellon University). Gaussian is a federally registered
 trademark of Gaussian, Inc.
  
 This software contains proprietary and confidential information,
 including trade secrets, belonging to Gaussian, Inc.
  
 This software is provided under written license and may be
 used, copied, transmitted, or stored only in accord with that
 written license.
  
 The following legend is applicable only to US Government
 contracts under FAR:
  
                    RESTRICTED RIGHTS LEGEND
  
 Use, reproduction and disclosure by the US Government is
 subject to restrictions as set forth in subparagraphs (a)
 and (c) of the Commercial Computer Software - Restricted
 Rights clause in FAR 52.227-19.
  
 Gaussian, Inc.
 340 Quinnipiac St., Bldg. 40, Wallingford CT 06492
  
  
 ---------------------------------------------------------------
 Warning -- This program may not be used in any manner that
 competes with the business of Gaussian, Inc. or will provide
 assistance to any competitor of Gaussian, Inc.  The licensee
 of this program is prohibited from giving any competitor of
 Gaussian, Inc. access to this program.  By using this program,
 the user acknowledges that Gaussian, Inc. is engaged in the
 business of creating and licensing software in the field of
 computational chemistry and represents and warrants to the
 licensee that it is not a competitor of Gaussian, Inc. and that
 it will not use this program in any manner prohibited above.
 ---------------------------------------------------------------
  

 Cite this work as:
 Gaussian 03, Revision D.02,
 M. J. Frisch, G. W. Trucks, H. B. Schlegel, G. E. Scuseria, 
 M. A. Robb, J. R. Cheeseman, J. A. Montgomery, Jr., T. Vreven, 
 K. N. Kudin, J. C. Burant, J. M. Millam, S. S. Iyengar, J. Tomasi, 
 V. Barone, B. Mennucci, M. Cossi, G. Scalmani, N. Rega, 
 G. A. Petersson, H. Nakatsuji, M. Hada, M. Ehara, K. Toyota, 
 R. Fukuda, J. Hasegawa, M. Ishida, T. Nakajima, Y. Honda, O. Kitao, 
 H. Nakai, M. Klene, X. Li, J. E. Knox, H. P. Hratchian, J. B. Cross, 
 V. Bakken, C. Adamo, J. Jaramillo, R. Gomperts, R. E. Stratmann, 
 O. Yazyev, A. J. Austin, R. Cammi, C. Pomelli, J. W. Ochterski, 
 P. Y. Ayala, K. Morokuma, G. A. Voth, P. Salvador, J. J. Dannenberg, 
 V. G. Zakrzewski, S. Dapprich, A. D. Daniels, M. C. Strain, 
 O. Farkas, D. K. Malick, A. D. Rabuck, K. Raghavachari, 
 J. B. Foresman, J. V. Ortiz, Q. Cui, A. G. Baboul, S. Clifford, 
 J. Cioslowski, B. B. Stefanov, G. Liu, A. Liashenko, P. Piskorz, 
 I. Komaromi, R. L. Martin, D. J. Fox, T. Keith, M. A. Al-Laham, 
 C. Y. Peng, A. Nanayakkara, M. Challacombe, P. M. W. Gill, 
 B. Johnson, W. Chen, M. W. Wong, C. Gonzalez, and J. A. Pople, 
 Gaussian, Inc., Wallingford CT, 2004.
 
 ******************************************
 Gaussian 03:  AM64L-G03RevD.02  1-Mar-2006
                12-Sep-2013 
 ******************************************
 %NPROC=1
 Will use up to    1 processors via shared memory.
 %Chk=/storage/bereau/hamm/ethanol/ethanol/ethanol.chk
 %Mem=1000MB
 -------------------------
 #P MP2/aug-cc-PVDZ nosymm
 -------------------------
 1/38=1/1;
 2/15=1,17=6,18=5,40=1/2;
 3/5=16,7=10,11=9,16=1,25=1,30=1/1,2,3;
 4//1;
 5/5=2,38=5/2;
 8/10=1/1;
 9/16=-3/6;
 6/7=2,8=2,9=2,10=2/1;
 99/5=1,9=1/99;
 Leave Link    1 at Thu Sep 12 13:49:20 2013, MaxMem=  131072000 cpu:       0.0
 (Enter /opt/cluster/additional/g03_64/l101.exe)
 --------------------
 ethanol single point
 --------------------
 Symbolic Z-matrix:
 Charge =  0 Multiplicity = 1
 C                     0.94879  -0.06979   0.04157 
 C                     2.46381  -0.07433   0.04504 
 O                     2.94508  -1.40478   0.159 
 H                     0.56237   0.94791  -0.06183 
 H                     0.55905  -0.50235   0.9683 
 H                     0.56431  -0.68009  -0.78157 
 H                     2.85622   0.51443   0.88039 
 H                     2.85003   0.35017  -0.88692 
 H                     2.60507  -1.76916   0.99375 
 
                    Isotopes and Nuclear Properties:
 (Nuclear quadrupole moments (NQMom) in fm**2, nuclear magnetic moments (NMagM)
  in nuclear magnetons)

  Atom         1           2           3           4           5           6           7           8           9
 IAtWgt=          12          12          16           1           1           1           1           1           1
 AtmWgt=  12.0000000  12.0000000  15.9949146   1.0078250   1.0078250   1.0078250   1.0078250   1.0078250   1.0078250
 NucSpn=           0           0           0           1           1           1           1           1           1
 AtZEff=   0.0000000   0.0000000   0.0000000   0.0000000   0.0000000   0.0000000   0.0000000   0.0000000   0.0000000
 NQMom=    0.0000000   0.0000000   0.0000000   0.0000000   0.0000000   0.0000000   0.0000000   0.0000000   0.0000000
 NMagM=    0.0000000   0.0000000   0.0000000   2.7928460   2.7928460   2.7928460   2.7928460   2.7928460   2.7928460
 Leave Link  101 at Thu Sep 12 13:49:21 2013, MaxMem=  131072000 cpu:       0.1
 (Enter /opt/cluster/additional/g03_64/l202.exe)
                          Input orientation:                          
 ---------------------------------------------------------------------
 Center     Atomic     Atomic              Coordinates (Angstroms)
 Number     Number      Type              X           Y           Z
 ---------------------------------------------------------------------
    1          6             0        0.948790   -0.069790    0.041570
    2          6             0        2.463810   -0.074330    0.045040
    3          8             0        2.945080   -1.404780    0.159000
    4          1             0        0.562370    0.947910   -0.061830
    5          1             0        0.559050   -0.502350    0.968300
    6          1             0        0.564310   -0.680090   -0.781570
    7          1             0        2.856220    0.514430    0.880390
    8          1             0        2.850030    0.350170   -0.886920
    9          1             0        2.605070   -1.769160    0.993750
 ---------------------------------------------------------------------
                    Distance matrix (angstroms):
                    1          2          3          4          5
     1  C    0.000000
     2  C    1.515031   0.000000
     3  O    2.404405   1.419403   0.000000
     4  H    1.093492   2.161451   3.355775   0.000000
     5  H    1.094456   2.159565   2.676282   1.778885   0.000000
     6  H    1.094464   2.158316   2.660435   1.780004   1.758882
     7  H    2.164075   1.094730   2.052235   2.517426   2.513675
     8  H    2.157122   1.094493   2.045197   2.504287   3.068749
     9  H    2.556906   1.947422   0.972207   3.559402   2.406585
                    6          7          8          9
     6  H    0.000000
     7  H    3.072758   0.000000
     8  H    2.509392   1.774938   0.000000
     9  H    2.915911   2.300154   2.844026   0.000000
 Symmetry turned off by external request.
 Stoichiometry    C2H6O
 Framework group  C1[X(C2H6O)]
 Deg. of freedom    21
 Full point group                 C1
 Rotational constants (GHZ):     33.3160401      9.5409275      8.3226272
 Leave Link  202 at Thu Sep 12 13:49:21 2013, MaxMem=  131072000 cpu:       0.1
 (Enter /opt/cluster/additional/g03_64/l301.exe)
 Standard basis: Aug-CC-pVDZ (5D, 7F)
 Integral buffers will be    131072 words long.
 Raffenetti 1 integral format.
 Two-electron integral symmetry is turned off.
   123 basis functions,   195 primitive gaussians,   129 cartesian basis functions
    13 alpha electrons       13 beta electrons
       nuclear repulsion energy        82.0313339675 Hartrees.
 IExCor=   0 DFT=F Ex=HF Corr=None ExCW=0 ScaHFX=  1.000000
 ScaDFX=  1.000000  1.000000  1.000000  1.000000
 IRadAn=      0 IRanWt=     -1 IRanGd=            0 ICorTp=0
 NAtoms=    9 NActive=    9 NUniq=    9 SFac= 7.50D-01 NAtFMM=   80 NAOKFM=F Big=F
 Leave Link  301 at Thu Sep 12 13:49:22 2013, MaxMem=  131072000 cpu:       0.0
 (Enter /opt/cluster/additional/g03_64/l302.exe)
 NPDir=0 NMtPBC=     1 NCelOv=     1 NCel=       1 NClECP=     1 NCelD=      1
         NCelK=      1 NCelE2=     1 NClLst=     1 CellRange=     0.0.
 One-electron integrals computed using PRISM.
 NBasis=   123 RedAO= T  NBF=   123
 NBsUse=   123 1.00D-06 NBFU=   123
 Leave Link  302 at Thu Sep 12 13:49:23 2013, MaxMem=  131072000 cpu:       0.2
 (Enter /opt/cluster/additional/g03_64/l303.exe)
 DipDrv:  MaxL=1.
 Leave Link  303 at Thu Sep 12 13:49:24 2013, MaxMem=  131072000 cpu:       0.0
 (Enter /opt/cluster/additional/g03_64/l401.exe)
 Harris functional with IExCor=  205 diagonalized for initial guess.
 ExpMin= 2.97D-02 ExpMax= 1.17D+04 ExpMxC= 4.01D+02 IAcc=3 IRadAn=         5 AccDes= 0.00D+00
 HarFok:  IExCor= 205 AccDes= 0.00D+00 IRadAn=         5 IDoV=1
 ScaDFX=  1.000000  1.000000  1.000000  1.000000
 Harris En= -154.394769962485    
 Leave Link  401 at Thu Sep 12 13:49:28 2013, MaxMem=  131072000 cpu:       3.0
 (Enter /opt/cluster/additional/g03_64/l502.exe)
 Closed shell SCF:
 Requested convergence on RMS density matrix=1.00D-08 within 128 cycles.
 Requested convergence on MAX density matrix=1.00D-06.
 Requested convergence on             energy=1.00D-06.
 No special actions if energy rises.
 Using DIIS extrapolation, IDIIS=  1040.
 Two-electron integral symmetry not used.
 Keep R1 integrals in memory in canonical form, NReq=    37153478.
 IEnd=     76724 IEndB=     76724 NGot= 131072000 MDV=  95870368
 LenX=  95870368
 Symmetry not used in FoFDir.
 MinBra= 0 MaxBra= 2 Meth= 1.
 IRaf=       0 NMat=   1 IRICut=       1 DoRegI=T DoRafI=F ISym2E= 0 JSym2E=0.

 Cycle   1  Pass 1  IDiag  1:
 E= -153.904265066918    
 DIIS: error= 2.53D-02 at cycle   1 NSaved=   1.
 NSaved= 1 IEnMin= 1 EnMin= -153.904265066918     IErMin= 1 ErrMin= 2.53D-02
 ErrMax= 2.53D-02 EMaxC= 1.00D-01 BMatC= 2.38D-01 BMatP= 2.38D-01
 IDIUse=3 WtCom= 7.47D-01 WtEn= 2.53D-01
 Coeff-Com:  0.100D+01
 Coeff-En:   0.100D+01
 Coeff:      0.100D+01
 Gap=     0.467 Goal=   None    Shift=    0.000
 GapD=    0.467 DampG=2.000 DampE=0.500 DampFc=1.0000 IDamp=-1.
 RMSDP=8.04D-03 MaxDP=1.33D-01              OVMax= 1.33D-01

 Cycle   2  Pass 1  IDiag  1:
 E= -154.063906951561     Delta-E=       -0.159641884643 Rises=F Damp=F
 DIIS: error= 1.54D-02 at cycle   2 NSaved=   2.
 NSaved= 2 IEnMin= 2 EnMin= -154.063906951561     IErMin= 2 ErrMin= 1.54D-02
 ErrMax= 1.54D-02 EMaxC= 1.00D-01 BMatC= 4.57D-02 BMatP= 2.38D-01
 IDIUse=3 WtCom= 8.46D-01 WtEn= 1.54D-01
 Coeff-Com:  0.276D+00 0.724D+00
 Coeff-En:   0.000D+00 0.100D+01
 Coeff:      0.233D+00 0.767D+00
 Gap=     0.504 Goal=   None    Shift=    0.000
 RMSDP=1.76D-03 MaxDP=3.68D-02 DE=-1.60D-01 OVMax= 4.97D-02

 Cycle   3  Pass 1  IDiag  1:
 E= -154.102578416525     Delta-E=       -0.038671464964 Rises=F Damp=F
 DIIS: error= 2.00D-03 at cycle   3 NSaved=   3.
 NSaved= 3 IEnMin= 3 EnMin= -154.102578416525     IErMin= 3 ErrMin= 2.00D-03
 ErrMax= 2.00D-03 EMaxC= 1.00D-01 BMatC= 1.88D-03 BMatP= 4.57D-02
 IDIUse=3 WtCom= 9.80D-01 WtEn= 2.00D-02
 Coeff-Com: -0.159D-01 0.124D+00 0.892D+00
 Coeff-En:   0.000D+00 0.000D+00 0.100D+01
 Coeff:     -0.156D-01 0.121D+00 0.895D+00
 Gap=     0.475 Goal=   None    Shift=    0.000
 RMSDP=3.33D-04 MaxDP=1.06D-02 DE=-3.87D-02 OVMax= 9.17D-03

 Cycle   4  Pass 1  IDiag  1:
 E= -154.104111040240     Delta-E=       -0.001532623715 Rises=F Damp=F
 DIIS: error= 5.94D-04 at cycle   4 NSaved=   4.
 NSaved= 4 IEnMin= 4 EnMin= -154.104111040240     IErMin= 4 ErrMin= 5.94D-04
 ErrMax= 5.94D-04 EMaxC= 1.00D-01 BMatC= 1.18D-04 BMatP= 1.88D-03
 IDIUse=3 WtCom= 9.94D-01 WtEn= 5.94D-03
 Coeff-Com: -0.134D-01 0.364D-02 0.226D+00 0.784D+00
 Coeff-En:   0.000D+00 0.000D+00 0.000D+00 0.100D+01
 Coeff:     -0.133D-01 0.362D-02 0.224D+00 0.785D+00
 Gap=     0.476 Goal=   None    Shift=    0.000
 RMSDP=8.02D-05 MaxDP=2.28D-03 DE=-1.53D-03 OVMax= 2.92D-03

 Cycle   5  Pass 1  IDiag  1:
 E= -154.104234174389     Delta-E=       -0.000123134150 Rises=F Damp=F
 DIIS: error= 2.59D-04 at cycle   5 NSaved=   5.
 NSaved= 5 IEnMin= 5 EnMin= -154.104234174389     IErMin= 5 ErrMin= 2.59D-04
 ErrMax= 2.59D-04 EMaxC= 1.00D-01 BMatC= 8.38D-06 BMatP= 1.18D-04
 IDIUse=3 WtCom= 9.97D-01 WtEn= 2.59D-03
 Coeff-Com:  0.141D-02-0.127D-01-0.912D-01 0.204D-01 0.108D+01
 Coeff-En:   0.000D+00 0.000D+00 0.000D+00 0.000D+00 0.100D+01
 Coeff:      0.141D-02-0.127D-01-0.909D-01 0.203D-01 0.108D+01
 Gap=     0.476 Goal=   None    Shift=    0.000
 RMSDP=3.86D-05 MaxDP=6.79D-04 DE=-1.23D-04 OVMax= 1.15D-03

 Cycle   6  Pass 1  IDiag  1:
 E= -154.104248754576     Delta-E=       -0.000014580186 Rises=F Damp=F
 DIIS: error= 3.08D-05 at cycle   6 NSaved=   6.
 NSaved= 6 IEnMin= 6 EnMin= -154.104248754576     IErMin= 6 ErrMin= 3.08D-05
 ErrMax= 3.08D-05 EMaxC= 1.00D-01 BMatC= 2.97D-07 BMatP= 8.38D-06
 IDIUse=1 WtCom= 1.00D+00 WtEn= 0.00D+00
 Coeff-Com:  0.820D-03-0.119D-02-0.166D-01-0.428D-01 0.262D-01 0.103D+01
 Coeff:      0.820D-03-0.119D-02-0.166D-01-0.428D-01 0.262D-01 0.103D+01
 Gap=     0.477 Goal=   None    Shift=    0.000
 RMSDP=1.02D-05 MaxDP=1.75D-04 DE=-1.46D-05 OVMax= 2.90D-04

 Cycle   7  Pass 1  IDiag  1:
 E= -154.104249446564     Delta-E=       -0.000000691988 Rises=F Damp=F
 DIIS: error= 8.91D-06 at cycle   7 NSaved=   7.
 NSaved= 7 IEnMin= 7 EnMin= -154.104249446564     IErMin= 7 ErrMin= 8.91D-06
 ErrMax= 8.91D-06 EMaxC= 1.00D-01 BMatC= 2.10D-08 BMatP= 2.97D-07
 IDIUse=1 WtCom= 1.00D+00 WtEn= 0.00D+00
 Coeff-Com: -0.617D-04 0.502D-03 0.435D-02-0.265D-02-0.508D-01 0.118D-01
 Coeff-Com:  0.104D+01
 Coeff:     -0.617D-04 0.502D-03 0.435D-02-0.265D-02-0.508D-01 0.118D-01
 Coeff:      0.104D+01
 Gap=     0.477 Goal=   None    Shift=    0.000
 RMSDP=2.84D-06 MaxDP=4.74D-05 DE=-6.92D-07 OVMax= 7.91D-05

 Cycle   8  Pass 1  IDiag  1:
 E= -154.104249493044     Delta-E=       -0.000000046480 Rises=F Damp=F
 DIIS: error= 2.33D-06 at cycle   8 NSaved=   8.
 NSaved= 8 IEnMin= 8 EnMin= -154.104249493044     IErMin= 8 ErrMin= 2.33D-06
 ErrMax= 2.33D-06 EMaxC= 1.00D-01 BMatC= 2.26D-09 BMatP= 2.10D-08
 IDIUse=1 WtCom= 1.00D+00 WtEn= 0.00D+00
 Coeff-Com: -0.881D-04 0.149D-03 0.199D-02 0.439D-02-0.333D-02-0.112D+00
 Coeff-Com:  0.384D-02 0.110D+01
 Coeff:     -0.881D-04 0.149D-03 0.199D-02 0.439D-02-0.333D-02-0.112D+00
 Coeff:      0.384D-02 0.110D+01
 Gap=     0.477 Goal=   None    Shift=    0.000
 RMSDP=1.10D-06 MaxDP=1.86D-05 DE=-4.65D-08 OVMax= 3.08D-05

 Cycle   9  Pass 1  IDiag  1:
 E= -154.104249498738     Delta-E=       -0.000000005695 Rises=F Damp=F
 DIIS: error= 6.07D-07 at cycle   9 NSaved=   9.
 NSaved= 9 IEnMin= 9 EnMin= -154.104249498738     IErMin= 9 ErrMin= 6.07D-07
 ErrMax= 6.07D-07 EMaxC= 1.00D-01 BMatC= 1.27D-10 BMatP= 2.26D-09
 IDIUse=1 WtCom= 1.00D+00 WtEn= 0.00D+00
 Coeff-Com:  0.932D-05-0.369D-04-0.428D-03-0.276D-03 0.306D-02 0.134D-01
 Coeff-Com: -0.714D-01-0.119D+00 0.117D+01
 Coeff:      0.932D-05-0.369D-04-0.428D-03-0.276D-03 0.306D-02 0.134D-01
 Coeff:     -0.714D-01-0.119D+00 0.117D+01
 Gap=     0.477 Goal=   None    Shift=    0.000
 RMSDP=2.63D-07 MaxDP=4.79D-06 DE=-5.69D-09 OVMax= 7.90D-06

 Cycle  10  Pass 1  IDiag  1:
 E= -154.104249499085     Delta-E=       -0.000000000347 Rises=F Damp=F
 DIIS: error= 1.97D-07 at cycle  10 NSaved=  10.
 NSaved=10 IEnMin=10 EnMin= -154.104249499085     IErMin=10 ErrMin= 1.97D-07
 ErrMax= 1.97D-07 EMaxC= 1.00D-01 BMatC= 6.29D-12 BMatP= 1.27D-10
 IDIUse=1 WtCom= 1.00D+00 WtEn= 0.00D+00
 Coeff-Com:  0.360D-05-0.297D-05-0.549D-04-0.251D-03-0.359D-03 0.585D-02
 Coeff-Com:  0.851D-02-0.520D-01-0.153D+00 0.119D+01
 Coeff:      0.360D-05-0.297D-05-0.549D-04-0.251D-03-0.359D-03 0.585D-02
 Coeff:      0.851D-02-0.520D-01-0.153D+00 0.119D+01
 Gap=     0.477 Goal=   None    Shift=    0.000
 RMSDP=5.46D-08 MaxDP=1.40D-06 DE=-3.47D-10 OVMax= 2.08D-06

 Cycle  11  Pass 1  IDiag  1:
 E= -154.104249499102     Delta-E=       -0.000000000017 Rises=F Damp=F
 DIIS: error= 3.82D-08 at cycle  11 NSaved=  11.
 NSaved=11 IEnMin=11 EnMin= -154.104249499102     IErMin=11 ErrMin= 3.82D-08
 ErrMax= 3.82D-08 EMaxC= 1.00D-01 BMatC= 3.12D-13 BMatP= 6.29D-12
 IDIUse=1 WtCom= 1.00D+00 WtEn= 0.00D+00
 Coeff-Com: -0.123D-05 0.221D-05 0.311D-04 0.780D-04-0.137D-04-0.214D-02
 Coeff-Com:  0.280D-03 0.187D-01 0.745D-03-0.355D+00 0.134D+01
 Coeff:     -0.123D-05 0.221D-05 0.311D-04 0.780D-04-0.137D-04-0.214D-02
 Coeff:      0.280D-03 0.187D-01 0.745D-03-0.355D+00 0.134D+01
 Gap=     0.477 Goal=   None    Shift=    0.000
 RMSDP=1.57D-08 MaxDP=4.21D-07 DE=-1.71D-11 OVMax= 6.03D-07

 Cycle  12  Pass 1  IDiag  1:
 E= -154.104249499104     Delta-E=       -0.000000000002 Rises=F Damp=F
 DIIS: error= 7.72D-09 at cycle  12 NSaved=  12.
 NSaved=12 IEnMin=12 EnMin= -154.104249499104     IErMin=12 ErrMin= 7.72D-09
 ErrMax= 7.72D-09 EMaxC= 1.00D-01 BMatC= 1.76D-14 BMatP= 3.12D-13
 IDIUse=1 WtCom= 1.00D+00 WtEn= 0.00D+00
 Coeff-Com:  0.158D-06-0.453D-06-0.575D-05-0.840D-05 0.218D-04 0.291D-03
 Coeff-Com: -0.491D-03-0.259D-02 0.974D-02 0.253D-01-0.311D+00 0.128D+01
 Coeff:      0.158D-06-0.453D-06-0.575D-05-0.840D-05 0.218D-04 0.291D-03
 Coeff:     -0.491D-03-0.259D-02 0.974D-02 0.253D-01-0.311D+00 0.128D+01
 Gap=     0.477 Goal=   None    Shift=    0.000
 RMSDP=3.28D-09 MaxDP=8.87D-08 DE=-1.90D-12 OVMax= 1.65D-07

 SCF Done:  E(RHF) =  -154.104249499     A.U. after   12 cycles
             Convg  =    0.3278D-08             -V/T =  2.0014
             S**2   =   0.0000
 KE= 1.538836993240D+02 PE=-5.257529977575D+02 EE= 1.357337149669D+02
 Leave Link  502 at Thu Sep 12 13:49:37 2013, MaxMem=  131072000 cpu:       8.2
 (Enter /opt/cluster/additional/g03_64/l801.exe)
 ExpMin= 2.97D-02 ExpMax= 1.17D+04 ExpMxC= 4.01D+02 IAcc=3 IRadAn=         5 AccDes= 0.00D+00
 HarFok:  IExCor= 205 AccDes= 0.00D+00 IRadAn=         5 IDoV=1
 ScaDFX=  1.000000  1.000000  1.000000  1.000000
 Largest valence mixing into a core orbital is  1.01D-04
 Largest core mixing into a valence orbital is  3.09D-05
 Range of M.O.s used for correlation:     4   123
 NBasis=   123 NAE=    13 NBE=    13 NFC=     3 NFV=     0
 NROrb=    120 NOA=    10 NOB=    10 NVA=   110 NVB=   110

 **** Warning!!: The largest alpha MO coefficient is  0.28786820D+02

 Leave Link  801 at Thu Sep 12 13:49:39 2013, MaxMem=  131072000 cpu:       0.5
 (Enter /opt/cluster/additional/g03_64/l906.exe)
 FulOut=F Deriv=F AODrv=F NAtomX=     9
   MMem=         866  MDisk=          10 MDiskD=          10
  W3Min=      141900 MinDsk=      312513 NBas6D=         129
 NBas2D=        8538    NTT=        8385    LW2=     2000000
    MDV=   131054579 MDiskM=       13894 NBas2p=        8537
 Fully in-core method, ICMem=    79301859.
 IMap=   1   2   3   4   5   6   7   8   9  10
 JobTyp=1 Pass  1 fully in-core, NPsUse=  1.
 Compute canonical integrals, IntTyp=   4.
 Symmetry not used in FoFDir.
 MinBra= 0 MaxBra= 2 Meth= 1.
 IRaf=       0 NMat=   1 IRICut=       1 DoRegI=T DoRafI=F ISym2E= 0 JSym2E=0.
 Spin components of T(2) and E(2):
     alpha-alpha T2 =       0.1918606804D-01 E2=     -0.6037742805D-01
     alpha-beta  T2 =       0.1183576331D+00 E2=     -0.3870232691D+00
     beta-beta   T2 =       0.1918606804D-01 E2=     -0.6037742805D-01
 The integrals were generated   1 times.
 ANorm=    0.1075513723D+01
 E2 =    -0.5077781252D+00 EUMP2 =    -0.15461202762434D+03
 Leave Link  906 at Thu Sep 12 13:49:49 2013, MaxMem=  131072000 cpu:       8.8
 (Enter /opt/cluster/additional/g03_64/l601.exe)
 Copying SCF densities to generalized density rwf, ISCF=0 IROHF=0.

 **********************************************************************

            Population analysis using the SCF density.

 **********************************************************************

 Alpha  occ. eigenvalues --  -20.56434 -11.28135 -11.22581  -1.35965  -1.01300
 Alpha  occ. eigenvalues --   -0.84776  -0.68535  -0.62598  -0.60741  -0.54219
 Alpha  occ. eigenvalues --   -0.52668  -0.48023  -0.44119
 Alpha virt. eigenvalues --    0.03544   0.04708   0.05033   0.05541   0.07783
 Alpha virt. eigenvalues --    0.07872   0.12107   0.12408   0.14221   0.15497
 Alpha virt. eigenvalues --    0.16379   0.16960   0.17635   0.20113   0.23700
 Alpha virt. eigenvalues --    0.24521   0.27760   0.29023   0.30633   0.30802
 Alpha virt. eigenvalues --    0.32475   0.33718   0.37426   0.37560   0.39258
 Alpha virt. eigenvalues --    0.42436   0.43673   0.45246   0.45815   0.47584
 Alpha virt. eigenvalues --    0.47815   0.49441   0.51199   0.52961   0.55325
 Alpha virt. eigenvalues --    0.55711   0.58526   0.60249   0.61316   0.62709
 Alpha virt. eigenvalues --    0.64292   0.65155   0.67389   0.68818   0.69441
 Alpha virt. eigenvalues --    0.71435   0.72335   0.74046   0.74658   0.79852
 Alpha virt. eigenvalues --    0.81567   0.83975   0.87883   0.91080   0.96223
 Alpha virt. eigenvalues --    1.02313   1.05519   1.09355   1.12428   1.18767
 Alpha virt. eigenvalues --    1.22037   1.22893   1.27657   1.29172   1.32739
 Alpha virt. eigenvalues --    1.41301   1.47731   1.48751   1.54924   1.59038
 Alpha virt. eigenvalues --    1.71413   1.74761   1.79364   1.83522   1.84369
 Alpha virt. eigenvalues --    1.89647   1.91436   1.93636   1.96803   2.04676
 Alpha virt. eigenvalues --    2.08988   2.11821   2.13255   2.17670   2.20135
 Alpha virt. eigenvalues --    2.23152   2.24314   2.25043   2.32738   2.34311
 Alpha virt. eigenvalues --    2.48641   2.51695   2.54552   2.62066   2.63143
 Alpha virt. eigenvalues --    2.71080   2.76469   2.84249   2.86073   2.90483
 Alpha virt. eigenvalues --    2.97640   3.02299   3.09280   3.13478   3.28085
 Alpha virt. eigenvalues --    3.78202   3.79400   3.85243   3.94662   4.30879
          Condensed to atoms (all electrons):
              1          2          3          4          5          6
     1  C    4.289319   0.503614   0.012210   0.299677   0.366427   0.392054
     2  C    0.503614   4.221959   0.007909   0.009155  -0.034187  -0.061637
     3  O    0.012210   0.007909   8.471136   0.017030  -0.005850   0.005720
     4  H    0.299677   0.009155   0.017030   1.051377  -0.141872  -0.109832
     5  H    0.366427  -0.034187  -0.005850  -0.141872   1.067598  -0.151073
     6  H    0.392054  -0.061637   0.005720  -0.109832  -0.151073   0.941609
     7  H   -0.014965   0.279324  -0.023766  -0.057640  -0.056199   0.063297
     8  H   -0.033809   0.304579  -0.110970  -0.036522   0.066209  -0.060280
     9  H   -0.017160  -0.034936   0.316655   0.007485   0.005934  -0.004747
              7          8          9
     1  C   -0.014965  -0.033809  -0.017160
     2  C    0.279324   0.304579  -0.034936
     3  O   -0.023766  -0.110970   0.316655
     4  H   -0.057640  -0.036522   0.007485
     5  H   -0.056199   0.066209   0.005934
     6  H    0.063297  -0.060280  -0.004747
     7  H    1.161340  -0.183724  -0.032351
     8  H   -0.183724   1.199351   0.014588
     9  H   -0.032351   0.014588   0.595613
 Mulliken atomic charges:
              1
     1  C    0.202633
     2  C    0.804219
     3  O   -0.690074
     4  H   -0.038858
     5  H   -0.116987
     6  H   -0.015113
     7  H   -0.135317
     8  H   -0.159422
     9  H    0.148920
 Sum of Mulliken charges=   0.00000
 Atomic charges with hydrogens summed into heavy atoms:
              1
     1  C    0.031675
     2  C    0.509480
     3  O   -0.541155
     4  H    0.000000
     5  H    0.000000
     6  H    0.000000
     7  H    0.000000
     8  H    0.000000
     9  H    0.000000
 Sum of Mulliken charges=   0.00000
 Electronic spatial extent (au):  <R**2>=   622.4714
 Charge=     0.0000 electrons
 Dipole moment (field-independent basis, Debye):
    X=    -1.1384    Y=     0.9350    Z=     1.0918  Tot=     1.8336
 Quadrupole moment (field-independent basis, Debye-Ang):
   XX=   -27.0587   YY=   -21.0655   ZZ=   -18.0522
   XY=     4.1823   XZ=     2.6273   YZ=    -2.6724
 Traceless Quadrupole moment (field-independent basis, Debye-Ang):
   XX=    -4.9999   YY=     0.9933   ZZ=     4.0066
   XY=     4.1823   XZ=     2.6273   YZ=    -2.6724
 Octapole moment (field-independent basis, Debye-Ang**2):
  XXX=  -152.6099  YYY=    27.7468  ZZZ=    -4.1666  XYY=   -45.8938
  XXY=    25.6427  XXZ=     3.7400  XZZ=   -35.3725  YZZ=     5.7154
  YYZ=     3.1999  XYZ=    -6.5680
 Hexadecapole moment (field-independent basis, Debye-Ang**3):
 XXXX=  -745.2477 YYYY=  -103.4933 ZZZZ=   -34.4093 XXXY=   137.7331
 XXXZ=    -3.7891 YYYX=    78.8650 YYYZ=    -4.5388 ZZZX=   -10.3479
 ZZZY=     2.4397 XXYY=  -143.0840 XXZZ=   -95.8804 YYZZ=   -17.9874
 XXYZ=   -13.5526 YYXZ=     8.5894 ZZXY=    18.1541
 N-N= 8.203133396751D+01 E-N=-5.257529976927D+02  KE= 1.538836993240D+02
 Leave Link  601 at Thu Sep 12 13:49:50 2013, MaxMem=  131072000 cpu:       0.0
 (Enter /opt/cluster/additional/g03_64/l9999.exe)
 1\1\GINC-NODE27\SP\RMP2-FC\Aug-CC-pVDZ\C2H6O1\BEREAU\12-Sep-2013\0\\#P
  MP2/aug-cc-PVDZ nosymm\\ethanol single point\\0,1\C,0,0.94879,-0.0697
 9,0.04157\C,0,2.46381,-0.07433,0.04504\O,0,2.94508,-1.40478,0.159\H,0,
 0.56237,0.94791,-0.06183\H,0,0.55905,-0.50235,0.9683\H,0,0.56431,-0.68
 009,-0.78157\H,0,2.85622,0.51443,0.88039\H,0,2.85003,0.35017,-0.88692\
 H,0,2.60507,-1.76916,0.99375\\Version=AM64L-G03RevD.02\HF=-154.1042495
 \MP2=-154.6120276\RMSD=3.278e-09\Thermal=0.\PG=C01 [X(C2H6O1)]\\@


 ABSOLUTISM, OBSOLETISM -- IF IT WORKS, IT'S OUT OF DATE

                          -- STAFFORD BEER
 Job cpu time:  0 days  0 hours  0 minutes 29.7 seconds.
 File lengths (MBytes):  RWF=     17 Int=      0 D2E=      0 Chk=     10 Scr=      1
 Normal termination of Gaussian 03 at Thu Sep 12 13:49:51 2013.
